 Gaussian 09, Revision C.01,
 Gaussian 09:  EM64L-G09RevC.01 23-Sep-2011

 ----------------------------------------------------------------
 #p scf=verytight b3lyp/6-31g(d,p) td(singlets,nstates=25) nosymm
 ----------------------------------------------------------------

 (Enter /apps/gaussian/g09_c01/g09/l101.exe)
 ----------------
 CSD ENTRY k01071
 ----------------
 Charge =  0 Multiplicity = 1

                          Input orientation:
 ---------------------------------------------------------------------
 Center     Atomic      Atomic             Coordinates (Angstroms)
 Number     Number       Type             X           Y           Z
 ---------------------------------------------------------------------
      1         14           0        9.411885   10.361962    8.666436
      2          6           0        7.455860    7.410396    5.973473
      3          6           0        8.220324    6.215071    5.871454
      4          6           0        9.399112    6.030366    6.618038
      5          1           0        9.685989    6.721148    7.204372
      6          6           0       10.154089    4.872582    6.525225
      7          6           0       11.363489    4.698947    7.271242
      8          1           0       11.657981    5.389074    7.853757
      9          6           0       12.093855    3.561679    7.156741
     10          1           0       12.892806    3.462628    7.660547
     11          6           0       11.672880    2.515872    6.288350
     12          1           0       12.187918    1.720156    6.226354
     13          6           0       10.546071    2.641758    5.552325
     14          1           0       10.288157    1.937357    4.969253
     15          6           0        9.734779    3.821518    5.636969
     16          6           0        8.574237    3.989412    4.898226
     17          1           0        8.293660    3.291948    4.316957
     18          6           0        7.792815    5.163143    4.982187
     19          6           0        7.917490    8.438985    6.852295
     20          6           0        8.398891    9.262639    7.593898
     21          6           0       10.452715   11.444404    7.581294
     22          1           0       11.112328   10.894048    7.109611
     23          1           0       10.916875   12.108722    8.132352
     24          1           0        9.881648   11.900638    6.929871
     25          6           0       10.535343    9.268278    9.661826
     26          1           0        9.999874    8.719986   10.273119
     27          1           0       11.157209    9.822301   10.178620
     28          1           0       11.041535    8.685081    9.059066
     29          6           0        8.318558   11.371812    9.771234
     30          1           0        7.741603   11.945414    9.224329
     31          1           0        8.871696   11.928741   10.359175
     32          1           0        7.762672   10.774464   10.315164
     33         14           0        4.653730    2.380001    1.529296
     34          6           0        6.609754    5.331567    4.222259
     35          6           0        5.845290    6.526892    4.324277
     36          6           0        4.666502    6.711597    3.577694
     37          1           0        4.379625    6.020815    2.991360
     38          6           0        3.911525    7.869381    3.670507
     39          6           0        2.702125    8.043015    2.924489
     40          1           0        2.407633    7.352889    2.341975
     41          6           0        1.971759    9.180284    3.038991
     42          1           0        1.172809    9.279335    2.535185
     43          6           0        2.392734   10.226091    3.907382
     44          1           0        1.877697   11.021807    3.969378
     45          6           0        3.519543   10.100205    4.643407
     46          1           0        3.777458   10.804606    5.226478
     47          6           0        4.330835    8.920445    4.558763
     48          6           0        5.491377    8.752550    5.297506
     49          1           0        5.771955    9.450015    5.878775
     50          6           0        6.272800    7.578820    5.213545
     51          6           0        6.148124    4.302978    3.343437
     52          6           0        5.666724    3.479324    2.601833
     53          6           0        3.612900    1.297558    2.614438
     54          1           0        2.953286    1.847915    3.086121
     55          1           0        3.148739    0.633240    2.063380
     56          1           0        4.183966    0.841325    3.265861
     57          6           0        3.530271    3.473685    0.533905
     58          1           0        4.065740    4.021976   -0.077387
     59          1           0        2.908406    2.919662    0.017112
     60          1           0        3.024080    4.056882    1.136666
     61          6           0        5.747057    1.370150    0.424498
     62          1           0        6.324012    0.796549    0.971403
     63          1           0        5.193919    0.813222   -0.163444
     64          1           0        6.302942    1.967498   -0.119433
     65         14           0       12.044600   12.908900   19.717100
     66          6           0       10.088600    9.957350   17.024200
     67          6           0       10.853100    8.762030   16.922200
     68          6           0       12.031800    8.577320   17.668700
     69          1           0       12.318700    9.268100   18.255100
     70          6           0       12.786800    7.419540   17.575900
     71          6           0       13.996200    7.245900   18.321900
     72          1           0       14.290700    7.936030   18.904500
     73          6           0       14.726600    6.108630   18.207400
     74          1           0       15.525500    6.009580   18.711200
     75          6           0       14.305600    5.062830   17.339000
     76          1           0       14.820700    4.267110   17.277000
     77          6           0       13.178800    5.188710   16.603000
     78          1           0       12.920900    4.484310   16.019900
     79          6           0       12.367500    6.368470   16.687700
     80          6           0       11.207000    6.536370   15.948900
     81          1           0       10.926400    5.838900   15.367700
     82          6           0       10.425600    7.710100   16.032900
     83          6           0       10.550200   10.985900   17.903000
     84          6           0       11.031600   11.809600   18.644600
     85          6           0       13.085500   13.991400   18.632000
     86          1           0       13.745100   13.441000   18.160300
     87          1           0       13.549600   14.655700   19.183000
     88          1           0       12.514400   14.447600   17.980600
     89          6           0       13.168100   11.815200   20.712500
     90          1           0       12.632600   11.266900   21.323800
     91          1           0       13.789900   12.369300   21.229300
     92          1           0       13.674300   11.232000   20.109800
     93          6           0       10.951300   13.918800   20.821900
     94          1           0       10.374300   14.492400   20.275000
     95          1           0       11.504400   14.475700   21.409900
     96          1           0       10.395400   13.321400   21.365900
     97         14           0        7.286470    4.926950   12.580000
     98          6           0        9.242490    7.878520   15.273000
     99          6           0        8.478030    9.073850   15.375000
    100          6           0        7.299240    9.258550   14.628400
    101          1           0        7.012360    8.567770   14.042100
    102          6           0        6.544260   10.416300   14.721200
    103          6           0        5.334860   10.590000   13.975200
    104          1           0        5.040370    9.899840   13.392700
    105          6           0        4.604500   11.727200   14.089700
    106          1           0        3.805550   11.826300   13.585900
    107          6           0        5.025470   12.773000   14.958100
    108          1           0        4.510430   13.568800   15.020100
    109          6           0        6.152280   12.647200   15.694100
    110          1           0        6.410190   13.351600   16.277200
    111          6           0        6.963570   11.467400   15.609500
    112          6           0        8.124110   11.299500   16.348200
    113          1           0        8.404690   11.997000   16.929500
    114          6           0        8.905540   10.125800   16.264200
    115          6           0        8.780860    6.849930   14.394100
    116          6           0        8.299460    6.026280   13.652500
    117          6           0        6.245640    3.844510   13.665100
    118          1           0        5.586020    4.394870   14.136800
    119          1           0        5.781480    3.180190   13.114100
    120          1           0        6.816700    3.388280   14.316600
    121          6           0        6.163010    6.020640   11.584600
    122          1           0        6.698480    6.568930   10.973300
    123          1           0        5.541140    5.466620   11.067800
    124          1           0        5.656820    6.603840   12.187400
    125          6           0        8.379790    3.917100   11.475200
    126          1           0        8.956750    3.343500   12.022100
    127          1           0        7.826660    3.360180   10.887300
    128          1           0        8.935680    4.514450   10.931300
 ---------------------------------------------------------------------

 SCF Done:  E(RB3LYP) =  -3632.31896604     A.U. after   17 cycles

 Excitation energies and oscillator strengths:

 Excited state symmetry could not be determined.
 Excited State   1:      Singlet-?Sym    1.7150 eV  722.92 nm  f=0.0017  <S**2>=0.000
     249 -> 251       -0.21146
     249 -> 252       -0.40693
     250 -> 251        0.49564
     250 -> 252        0.20956
 This state for optimization and/or second-order correction.
 Total Energy, E(TD-HF/TD-KS) =  -3632.25593953
 Copying the excited state density for this state as the 1-particle RhoCI density.

 Excited state symmetry could not be determined.
 Excited State   2:      Singlet-?Sym    1.7152 eV  722.83 nm  f=0.0004  <S**2>=0.000
     249 -> 251        0.45568
     249 -> 252       -0.21543
     250 -> 251        0.20788
     250 -> 252       -0.45009

 Excited state symmetry could not be determined.
 Excited State   3:      Singlet-?Sym    1.7390 eV  712.97 nm  f=0.2919  <S**2>=0.000
     249 -> 252        0.53939
     250 -> 251        0.46271

 Excited state symmetry could not be determined.
 Excited State   4:      Singlet-?Sym    1.7475 eV  709.48 nm  f=0.0000  <S**2>=0.000
     249 -> 251        0.50010
     250 -> 252        0.50587

 Excited state symmetry could not be determined.
 Excited State   5:      Singlet-?Sym    2.7314 eV  453.93 nm  f=0.0000  <S**2>=0.000
     247 -> 251        0.29596
     247 -> 252        0.11327
     248 -> 251       -0.37521
     248 -> 252        0.47458
     249 -> 253        0.12006
     250 -> 254       -0.10310

 Excited state symmetry could not be determined.
 Excited State   6:      Singlet-?Sym    2.7315 eV  453.90 nm  f=0.0000  <S**2>=0.000
     247 -> 251        0.39580
     247 -> 252        0.45745
     248 -> 251        0.29076
     248 -> 252       -0.12606
     249 -> 254       -0.12319
     250 -> 253        0.10282

 Excited state symmetry could not be determined.
 Excited State   7:      Singlet-?Sym    3.0278 eV  409.48 nm  f=0.0000  <S**2>=0.000
     247 -> 251       -0.10142
     248 -> 251        0.49895
     248 -> 252        0.48027

 Excited state symmetry could not be determined.
 Excited State   8:      Singlet-?Sym    3.0281 eV  409.45 nm  f=0.0000  <S**2>=0.000
     247 -> 251       -0.47731
     247 -> 252        0.50183
     248 -> 252        0.10101

 Excited state symmetry could not be determined.
 Excited State   9:      Singlet-?Sym    3.1862 eV  389.13 nm  f=0.0000  <S**2>=0.000
     244 -> 251       -0.10157
     245 -> 251        0.42887
     246 -> 252        0.43075
     249 -> 255        0.18674
     250 -> 256        0.18750

 Excited state symmetry could not be determined.
 Excited State  10:      Singlet-?Sym    3.1868 eV  389.05 nm  f=0.0863  <S**2>=0.000
     245 -> 252        0.44387
     246 -> 251        0.45127
     249 -> 256        0.19982
     250 -> 255        0.20035

 Excited state symmetry could not be determined.
 Excited State  11:      Singlet-?Sym    3.1984 eV  387.65 nm  f=0.0001  <S**2>=0.000
     243 -> 251        0.23233
     243 -> 252        0.30488
     244 -> 251       -0.29491
     244 -> 252        0.21509
     245 -> 251       -0.14134
     246 -> 252       -0.14051
     249 -> 257        0.16404
     249 -> 258       -0.21411
     250 -> 257        0.22300
     250 -> 258        0.15214

 Excited state symmetry could not be determined.
 Excited State  12:      Singlet-?Sym    3.1992 eV  387.54 nm  f=0.0916  <S**2>=0.000
     243 -> 251       -0.32077
     243 -> 252       -0.21346
     244 -> 251       -0.22837
     244 -> 252        0.32956
     249 -> 257       -0.24033
     249 -> 258       -0.16506
     250 -> 257       -0.15538
     250 -> 258        0.24796

 Excited state symmetry could not be determined.
 Excited State  13:      Singlet-?Sym    3.2011 eV  387.32 nm  f=0.0000  <S**2>=0.000
     248 -> 252       -0.11659
     249 -> 253        0.46674
     250 -> 253       -0.24688
     250 -> 254       -0.41390

 Excited state symmetry could not be determined.
 Excited State  14:      Singlet-?Sym    3.2013 eV  387.30 nm  f=0.0001  <S**2>=0.000
     247 -> 252        0.11395
     249 -> 254        0.48355
     250 -> 253       -0.42050
     250 -> 254        0.22561

 Excited state symmetry could not be determined.
 Excited State  15:      Singlet-?Sym    3.4161 eV  362.94 nm  f=0.0000  <S**2>=0.000
     249 -> 253        0.29576
     249 -> 254       -0.39060
     250 -> 253       -0.22283
     250 -> 254        0.45695

 Excited state symmetry could not be determined.
 Excited State  16:      Singlet-?Sym    3.4161 eV  362.94 nm  f=0.0000  <S**2>=0.000
     249 -> 253        0.41081
     249 -> 254        0.30589
     250 -> 253        0.43853
     250 -> 254        0.20943

 Excited state symmetry could not be determined.
 Excited State  17:      Singlet-?Sym    3.4929 eV  354.96 nm  f=0.0000  <S**2>=0.000
     245 -> 251       -0.35738
     245 -> 252       -0.33885
     246 -> 251        0.36246
     246 -> 252        0.35162

 Excited state symmetry could not be determined.
 Excited State  18:      Singlet-?Sym    3.4931 eV  354.94 nm  f=0.0000  <S**2>=0.000
     245 -> 251       -0.34782
     245 -> 252        0.36851
     246 -> 251       -0.34082
     246 -> 252        0.35303

 Excited state symmetry could not be determined.
 Excited State  19:      Singlet-?Sym    3.5938 eV  344.99 nm  f=0.0000  <S**2>=0.000
     244 -> 251        0.50322
     244 -> 252        0.48245

 Excited state symmetry could not be determined.
 Excited State  20:      Singlet-?Sym    3.5939 eV  344.98 nm  f=0.0000  <S**2>=0.000
     243 -> 251       -0.48145
     243 -> 252        0.50417

 Excited state symmetry could not be determined.
 Excited State  21:      Singlet-?Sym    3.6734 eV  337.52 nm  f=0.5005  <S**2>=0.000
     245 -> 252       -0.20914
     246 -> 251       -0.20055
     249 -> 256        0.44182
     250 -> 255        0.45508

 Excited state symmetry could not be determined.
 Excited State  22:      Singlet-?Sym    3.6752 eV  337.36 nm  f=0.0000  <S**2>=0.000
     245 -> 251       -0.20638
     246 -> 252       -0.20532
     249 -> 255        0.44831
     250 -> 256        0.44630

 Excited state symmetry could not be determined.
 Excited State  23:      Singlet-?Sym    3.7326 eV  332.16 nm  f=0.0001  <S**2>=0.000
     239 -> 251        0.49015
     240 -> 252        0.47513

 Excited state symmetry could not be determined.
 Excited State  24:      Singlet-?Sym    3.7328 eV  332.15 nm  f=0.0060  <S**2>=0.000
     239 -> 252        0.47685
     240 -> 251        0.48453
     240 -> 252       -0.11427

 Excited state symmetry could not be determined.
 Excited State  25:      Singlet-?Sym    3.7900 eV  327.14 nm  f=0.0001  <S**2>=0.000
     237 -> 251        0.24806
     238 -> 251        0.41536
     238 -> 252        0.45208
     241 -> 252       -0.10990
     242 -> 251        0.11793

 Alpha  occ. eigenvalues --  -66.11623 -66.11622 -66.11306 -66.11305 -10.21451
 Alpha  occ. eigenvalues --  -10.21450 -10.21432 -10.21432 -10.20220 -10.20220
 Alpha  occ. eigenvalues --  -10.20211 -10.20211 -10.20153 -10.20152 -10.20146
 Alpha  occ. eigenvalues --  -10.20145 -10.19315 -10.19315 -10.19310 -10.19310
 Alpha  occ. eigenvalues --  -10.19234 -10.19233 -10.19229 -10.19229 -10.18190
 Alpha  occ. eigenvalues --  -10.18189 -10.18075 -10.18074 -10.17361 -10.17361
 Alpha  occ. eigenvalues --  -10.17361 -10.17360 -10.17322 -10.17322 -10.17303
 Alpha  occ. eigenvalues --  -10.17303 -10.17292 -10.17292 -10.17286 -10.17286
 Alpha  occ. eigenvalues --  -10.17246 -10.17245 -10.17228 -10.17228 -10.17210
 Alpha  occ. eigenvalues --  -10.17210 -10.17208 -10.17207 -10.17204 -10.17204
 Alpha  occ. eigenvalues --  -10.17197 -10.17197 -10.15728 -10.15728 -10.15647
 Alpha  occ. eigenvalues --  -10.15647 -10.12534 -10.12533 -10.12374 -10.12374
 Alpha  occ. eigenvalues --  -10.12282 -10.12281 -10.12125 -10.12124 -10.12007
 Alpha  occ. eigenvalues --  -10.12007 -10.11956 -10.11956  -5.26295  -5.26295
 Alpha  occ. eigenvalues --   -5.25984  -5.25983  -3.62270  -3.62270  -3.62106
 Alpha  occ. eigenvalues --   -3.62106  -3.62091  -3.62091  -3.61962  -3.61962
 Alpha  occ. eigenvalues --   -3.61792  -3.61792  -3.61777  -3.61776  -0.89234
 Alpha  occ. eigenvalues --   -0.89233  -0.87365  -0.87364  -0.85451  -0.85451
 Alpha  occ. eigenvalues --   -0.82256  -0.82255  -0.81661  -0.81661  -0.78748
 Alpha  occ. eigenvalues --   -0.78747  -0.78354  -0.78354  -0.77183  -0.77183
 Alpha  occ. eigenvalues --   -0.74923  -0.74922  -0.74378  -0.74375  -0.74120
 Alpha  occ. eigenvalues --   -0.74120  -0.73412  -0.73411  -0.73272  -0.73272
 Alpha  occ. eigenvalues --   -0.72175  -0.72174  -0.71131  -0.71130  -0.70953
 Alpha  occ. eigenvalues --   -0.70952  -0.70741  -0.70740  -0.70594  -0.70590
 Alpha  occ. eigenvalues --   -0.69139  -0.69138  -0.67612  -0.67612  -0.63109
 Alpha  occ. eigenvalues --   -0.63109  -0.62797  -0.62797  -0.62690  -0.62690
 Alpha  occ. eigenvalues --   -0.61422  -0.61422  -0.61208  -0.61208  -0.58759
 Alpha  occ. eigenvalues --   -0.58759  -0.54068  -0.54068  -0.53727  -0.53727
 Alpha  occ. eigenvalues --   -0.53245  -0.53245  -0.52643  -0.52642  -0.52516
 Alpha  occ. eigenvalues --   -0.52516  -0.49717  -0.49717  -0.48934  -0.48933
 Alpha  occ. eigenvalues --   -0.48524  -0.48524  -0.47754  -0.47752  -0.47130
 Alpha  occ. eigenvalues --   -0.47129  -0.45429  -0.45429  -0.44259  -0.44257
 Alpha  occ. eigenvalues --   -0.43957  -0.43956  -0.43727  -0.43727  -0.43620
 Alpha  occ. eigenvalues --   -0.43609  -0.43417  -0.43415  -0.43172  -0.43171
 Alpha  occ. eigenvalues --   -0.43093  -0.43092  -0.43013  -0.43012  -0.42741
 Alpha  occ. eigenvalues --   -0.42714  -0.42655  -0.42626  -0.42494  -0.42494
 Alpha  occ. eigenvalues --   -0.41618  -0.41618  -0.41511  -0.41511  -0.41278
 Alpha  occ. eigenvalues --   -0.41276  -0.41193  -0.41190  -0.41107  -0.41101
 Alpha  occ. eigenvalues --   -0.40787  -0.40787  -0.40424  -0.40423  -0.40052
 Alpha  occ. eigenvalues --   -0.40045  -0.39892  -0.39891  -0.38878  -0.38877
 Alpha  occ. eigenvalues --   -0.38718  -0.38717  -0.37098  -0.37098  -0.36504
 Alpha  occ. eigenvalues --   -0.36503  -0.35835  -0.35834  -0.34926  -0.34925
 Alpha  occ. eigenvalues --   -0.34688  -0.34688  -0.34100  -0.34093  -0.33639
 Alpha  occ. eigenvalues --   -0.33639  -0.33528  -0.33527  -0.32961  -0.32961
 Alpha  occ. eigenvalues --   -0.32195  -0.32194  -0.30844  -0.30839  -0.30664
 Alpha  occ. eigenvalues --   -0.30658  -0.30425  -0.30424  -0.30042  -0.30040
 Alpha  occ. eigenvalues --   -0.28577  -0.28568  -0.28552  -0.28551  -0.27715
 Alpha  occ. eigenvalues --   -0.27704  -0.26297  -0.26297  -0.26093  -0.26092
 Alpha  occ. eigenvalues --   -0.25767  -0.25753  -0.23676  -0.23676  -0.23346
 Alpha  occ. eigenvalues --   -0.23336  -0.21596  -0.21595  -0.16796  -0.16789
 Alpha virt. eigenvalues --   -0.09602  -0.09596  -0.03372  -0.03371  -0.01814
 Alpha virt. eigenvalues --   -0.01806  -0.01370  -0.01370   0.01881   0.01901
 Alpha virt. eigenvalues --    0.02591   0.02595   0.02950   0.02962   0.03006

 Mulliken atomic charges:
              1
     1  Si   0.551024
     2  C   -0.065596
     3  C    0.097437
     4  C   -0.163687
     5  H    0.067787
     6  C    0.096066
     7  C   -0.083055
     8  H    0.057983
     9  C   -0.065067
    10  H    0.059737
    11  C   -0.061943
    12  H    0.059405
    13  C   -0.082365
    14  H    0.056864
    15  C    0.109649
    16  C   -0.169942
    17  H    0.062510
    18  C    0.117355
    19  C    0.406004
    20  C   -0.623964
    21  C   -0.515709
    22  H    0.127911
    23  H    0.119639
    24  H    0.127549
    25  C   -0.523276
    26  H    0.130973
    27  H    0.122556
    28  H    0.123125
    29  C   -0.519923
    30  H    0.126593
    31  H    0.124494
    32  H    0.132707
    33  Si   0.551348
    34  C   -0.066555
    35  C    0.098196
    36  C   -0.162964
    37  H    0.066525
    38  C    0.096787
    39  C   -0.082395
    40  H    0.056151
    41  C   -0.065048
    42  H    0.059174
    43  C   -0.062105
    44  H    0.059376
    45  C   -0.082093
    46  H    0.057213
    47  C    0.109384
    48  C   -0.169351
    49  H    0.063220
    50  C    0.116891
    51  C    0.408334
    52  C   -0.625351
    53  C   -0.515585
    54  H    0.128345
    55  H    0.118916
    56  H    0.128308
    57  C   -0.521776
    58  H    0.126401
    59  H    0.119797
    60  H    0.125344
    61  C   -0.520545
    62  H    0.128786
    63  H    0.121228
    64  H    0.131202
    65  Si   0.551346
    66  C   -0.066568
    67  C    0.098299
    68  C   -0.163045
    69  H    0.066551
    70  C    0.096830
    71  C   -0.082457
    72  H    0.056173
    73  C   -0.065011
    74  H    0.059160
    75  C   -0.062135
    76  H    0.059388
    77  C   -0.082074
    78  H    0.057219
    79  C    0.109342
    80  C   -0.169311
    81  H    0.063209
    82  C    0.116847
    83  C    0.408273
    84  C   -0.625285
    85  C   -0.515588
    86  H    0.128339
    87  H    0.118919
    88  H    0.128303
    89  C   -0.521780
    90  H    0.126396
    91  H    0.119796
    92  H    0.125343
    93  C   -0.520554
    94  H    0.128788
    95  H    0.121231
    96  H    0.131197
    97  Si   0.551009
    98  C   -0.065600
    99  C    0.097418
   100  C   -0.163672
   101  H    0.067777
   102  C    0.096090
   103  C   -0.083068
   104  H    0.057987
   105  C   -0.065039
   106  H    0.059740
   107  C   -0.061999
   108  H    0.059428
   109  C   -0.082335
   110  H    0.056872
   111  C    0.109614
   112  C   -0.169979
   113  H    0.062532
   114  C    0.117381
   115  C    0.406011
   116  C   -0.623943
   117  C   -0.515710
   118  H    0.127910
   119  H    0.119645
   120  H    0.127547
   121  C   -0.523279
   122  H    0.130973
   123  H    0.122556
   124  H    0.123123
   125  C   -0.519918
   126  H    0.126590
   127  H    0.124494
   128  H    0.132706
 Sum of Mulliken atomic charges =   0.00000

 Dipole moment (field-independent basis, Debye):
    X=             -0.0005    Y=             -0.0005    Z=             -0.0001  Tot=              0.0007
 Quadrupole moment (field-independent basis, Debye-Ang):
   XX=           -381.3264   YY=           -376.6786   ZZ=           -400.7122
   XY=             -5.1896   XZ=             30.2595   YZ=             23.1474

 Normal termination of Gaussian 09 at Sat Feb  2 06:57:20 2013.
