 Gaussian 09, Revision C.01,
 Gaussian 09:  EM64L-G09RevC.01 23-Sep-2011

 ----------------------------------------------------------------
 #p scf=verytight b3lyp/6-31g(d,p) td(singlets,nstates=25) nosymm
 ----------------------------------------------------------------

 (Enter /apps/gaussian/g09_c01/g09/l101.exe)
 ----------------
 CSD ENTRY k01071
 ----------------
 Charge =  0 Multiplicity = 1

                          Input orientation:
 ---------------------------------------------------------------------
 Center     Atomic      Atomic             Coordinates (Angstroms)
 Number     Number       Type             X           Y           Z
 ---------------------------------------------------------------------
      1         14           0        9.411885   10.361962    8.666436
      2          6           0        7.455860    7.410396    5.973473
      3          6           0        8.220324    6.215071    5.871454
      4          6           0        9.399112    6.030366    6.618038
      5          1           0        9.685989    6.721148    7.204372
      6          6           0       10.154089    4.872582    6.525225
      7          6           0       11.363489    4.698947    7.271242
      8          1           0       11.657981    5.389074    7.853757
      9          6           0       12.093855    3.561679    7.156741
     10          1           0       12.892806    3.462628    7.660547
     11          6           0       11.672880    2.515872    6.288350
     12          1           0       12.187918    1.720156    6.226354
     13          6           0       10.546071    2.641758    5.552325
     14          1           0       10.288157    1.937357    4.969253
     15          6           0        9.734779    3.821518    5.636969
     16          6           0        8.574237    3.989412    4.898226
     17          1           0        8.293660    3.291948    4.316957
     18          6           0        7.792815    5.163143    4.982187
     19          6           0        7.917490    8.438985    6.852295
     20          6           0        8.398891    9.262639    7.593898
     21          6           0       10.452715   11.444404    7.581294
     22          1           0       11.112328   10.894048    7.109611
     23          1           0       10.916875   12.108722    8.132352
     24          1           0        9.881648   11.900638    6.929871
     25          6           0       10.535343    9.268278    9.661826
     26          1           0        9.999874    8.719986   10.273119
     27          1           0       11.157209    9.822301   10.178620
     28          1           0       11.041535    8.685081    9.059066
     29          6           0        8.318558   11.371812    9.771234
     30          1           0        7.741603   11.945414    9.224329
     31          1           0        8.871696   11.928741   10.359175
     32          1           0        7.762672   10.774464   10.315164
     33         14           0        4.653730    2.380001    1.529296
     34          6           0        6.609754    5.331567    4.222259
     35          6           0        5.845290    6.526892    4.324277
     36          6           0        4.666502    6.711597    3.577694
     37          1           0        4.379625    6.020815    2.991360
     38          6           0        3.911525    7.869381    3.670507
     39          6           0        2.702125    8.043015    2.924489
     40          1           0        2.407633    7.352889    2.341975
     41          6           0        1.971759    9.180284    3.038991
     42          1           0        1.172809    9.279335    2.535185
     43          6           0        2.392734   10.226091    3.907382
     44          1           0        1.877697   11.021807    3.969378
     45          6           0        3.519543   10.100205    4.643407
     46          1           0        3.777458   10.804606    5.226478
     47          6           0        4.330835    8.920445    4.558763
     48          6           0        5.491377    8.752550    5.297506
     49          1           0        5.771955    9.450015    5.878775
     50          6           0        6.272800    7.578820    5.213545
     51          6           0        6.148124    4.302978    3.343437
     52          6           0        5.666724    3.479324    2.601833
     53          6           0        3.612900    1.297558    2.614438
     54          1           0        2.953286    1.847915    3.086121
     55          1           0        3.148739    0.633240    2.063380
     56          1           0        4.183966    0.841325    3.265861
     57          6           0        3.530271    3.473685    0.533905
     58          1           0        4.065740    4.021976   -0.077387
     59          1           0        2.908406    2.919662    0.017112
     60          1           0        3.024080    4.056882    1.136666
     61          6           0        5.747057    1.370150    0.424498
     62          1           0        6.324012    0.796549    0.971403
     63          1           0        5.193919    0.813222   -0.163444
     64          1           0        6.302942    1.967498   -0.119433
     65         14           0       10.297900   20.469200    8.666440
     66          6           0        8.341910   17.517600    5.973470
     67          6           0        9.106370   16.322300    5.871450
     68          6           0       10.285200   16.137600    6.618040
     69          1           0       10.572000   16.828400    7.204370
     70          6           0       11.040100   14.979800    6.525220
     71          6           0       12.249500   14.806200    7.271240
     72          1           0       12.544000   15.496300    7.853760
     73          6           0       12.979900   13.668900    7.156740
     74          1           0       13.778900   13.569900    7.660550
     75          6           0       12.558900   12.623100    6.288350
     76          1           0       13.074000   11.827400    6.226350
     77          6           0       11.432100   12.749000    5.552320
     78          1           0       11.174200   12.044600    4.969250
     79          6           0       10.620800   13.928800    5.636970
     80          6           0        9.460280   14.096600    4.898230
     81          1           0        9.179710   13.399200    4.316960
     82          6           0        8.678860   15.270400    4.982190
     83          6           0        8.803540   18.546200    6.852290
     84          6           0        9.284940   19.369900    7.593900
     85          6           0       11.338800   21.551600    7.581290
     86          1           0       11.998400   21.001300    7.109610
     87          1           0       11.802900   22.216000    8.132350
     88          1           0       10.767700   22.007900    6.929870
     89          6           0       11.421400   19.375500    9.661830
     90          1           0       10.885900   18.827200   10.273100
     91          1           0       12.043300   19.929500   10.178600
     92          1           0       11.927600   18.792300    9.059070
     93          6           0        9.204600   21.479000    9.771230
     94          1           0        8.627650   22.052700    9.224330
     95          1           0        9.757740   22.036000   10.359200
     96          1           0        8.648720   20.881700   10.315200
     97         14           0        5.539780   12.487200    1.529300
     98          6           0        7.495800   15.438800    4.222260
     99          6           0        6.731340   16.634100    4.324280
    100          6           0        5.552550   16.818800    3.577690
    101          1           0        5.265670   16.128100    2.991360
    102          6           0        4.797570   17.976600    3.670510
    103          6           0        3.588170   18.150300    2.924490
    104          1           0        3.293680   17.460100    2.341970
    105          6           0        2.857810   19.287500    3.038990
    106          1           0        2.058850   19.386600    2.535190
    107          6           0        3.278780   20.333300    3.907380
    108          1           0        2.763740   21.129000    3.969380
    109          6           0        4.405590   20.207400    4.643410
    110          1           0        4.663500   20.911800    5.226480
    111          6           0        5.216880   19.027700    4.558760
    112          6           0        6.377420   18.859800    5.297510
    113          1           0        6.658000   19.557300    5.878770
    114          6           0        7.158850   17.686100    5.213550
    115          6           0        7.034170   14.410200    3.343440
    116          6           0        6.552770   13.586600    2.601830
    117          6           0        4.498950   11.404800    2.614440
    118          1           0        3.839330   11.955200    3.086120
    119          1           0        4.034790   10.740500    2.063380
    120          1           0        5.070010   10.948600    3.265860
    121          6           0        4.416320   13.580900    0.533905
    122          1           0        4.951790   14.129200   -0.077387
    123          1           0        3.794450   13.026900    0.017112
    124          1           0        3.910130   14.164100    1.136670
    125          6           0        6.633100   11.477400    0.424498
    126          1           0        7.210060   10.903800    0.971403
    127          1           0        6.079960   10.920500   -0.163444
    128          1           0        7.188990   12.074700   -0.119433
 ---------------------------------------------------------------------

 SCF Done:  E(RB3LYP) =  -3632.26982623     A.U. after   15 cycles

 Excitation energies and oscillator strengths:

 Excited state symmetry could not be determined.
 Excited State   1:      Singlet-?Sym    1.6485 eV  752.12 nm  f=0.0000  <S**2>=0.000
     249 -> 252        0.29495
     250 -> 251        0.64282
 This state for optimization and/or second-order correction.
 Total Energy, E(TD-HF/TD-KS) =  -3632.20924667
 Copying the excited state density for this state as the 1-particle RhoCI density.

 Excited state symmetry could not be determined.
 Excited State   2:      Singlet-?Sym    1.6505 eV  751.20 nm  f=0.0465  <S**2>=0.000
     249 -> 251        0.29770
     250 -> 252        0.64152

 Excited state symmetry could not be determined.
 Excited State   3:      Singlet-?Sym    1.7284 eV  717.32 nm  f=0.2445  <S**2>=0.000
     249 -> 251        0.64315
     250 -> 252       -0.30183

 Excited state symmetry could not be determined.
 Excited State   4:      Singlet-?Sym    1.7361 eV  714.15 nm  f=0.0000  <S**2>=0.000
     249 -> 252        0.64444
     250 -> 251       -0.29922

 Excited state symmetry could not be determined.
 Excited State   5:      Singlet-?Sym    2.6622 eV  465.73 nm  f=0.0000  <S**2>=0.000
     247 -> 251        0.46058
     248 -> 252        0.51169
     249 -> 254       -0.10171
     250 -> 253        0.10517

 Excited state symmetry could not be determined.
 Excited State   6:      Singlet-?Sym    2.6633 eV  465.53 nm  f=0.0035  <S**2>=0.000
     247 -> 252        0.46016
     248 -> 251        0.51105
     249 -> 253       -0.10312
     250 -> 254        0.10693

 Excited state symmetry could not be determined.
 Excited State   7:      Singlet-?Sym    2.8828 eV  430.08 nm  f=0.0000  <S**2>=0.000
     246 -> 252       -0.10796
     247 -> 251        0.51030
     248 -> 252       -0.47193

 Excited state symmetry could not be determined.
 Excited State   8:      Singlet-?Sym    2.8865 eV  429.52 nm  f=0.0224  <S**2>=0.000
     246 -> 251       -0.10344
     247 -> 252        0.51216
     248 -> 251       -0.47221

 Excited state symmetry could not be determined.
 Excited State   9:      Singlet-?Sym    3.1236 eV  396.93 nm  f=0.0001  <S**2>=0.000
     245 -> 251        0.28230
     246 -> 252        0.51798
     247 -> 251        0.13286
     249 -> 254        0.16993
     249 -> 255       -0.14347
     250 -> 253       -0.22017
     250 -> 256       -0.13552

 Excited state symmetry could not be determined.
 Excited State  10:      Singlet-?Sym    3.1250 eV  396.75 nm  f=0.0866  <S**2>=0.000
     245 -> 252        0.28092
     246 -> 251        0.52952
     247 -> 252        0.12463
     249 -> 253        0.14210
     249 -> 256        0.13313
     250 -> 254       -0.18046
     250 -> 255        0.15700

 Excited state symmetry could not be determined.
 Excited State  11:      Singlet-?Sym    3.1695 eV  391.18 nm  f=0.0100  <S**2>=0.000
     245 -> 252        0.14242
     246 -> 251        0.18995
     248 -> 251       -0.10662
     249 -> 253       -0.38077
     250 -> 254        0.51203

 Excited state symmetry could not be determined.
 Excited State  12:      Singlet-?Sym    3.1713 eV  390.95 nm  f=0.0000  <S**2>=0.000
     245 -> 251        0.16439
     246 -> 252        0.21984
     248 -> 252       -0.10447
     249 -> 254       -0.36894
     250 -> 253        0.49735

 Excited state symmetry could not be determined.
 Excited State  13:      Singlet-?Sym    3.1853 eV  389.24 nm  f=0.0000  <S**2>=0.000
     243 -> 252        0.38859
     244 -> 251        0.39976
     249 -> 257        0.27936
     250 -> 258        0.28902

 Excited state symmetry could not be determined.
 Excited State  14:      Singlet-?Sym    3.1898 eV  388.68 nm  f=0.0707  <S**2>=0.000
     243 -> 251        0.38494
     244 -> 252        0.38080
     245 -> 252        0.10135
     249 -> 256        0.10869
     249 -> 258       -0.26929
     250 -> 257       -0.30157

 Excited state symmetry could not be determined.
 Excited State  15:      Singlet-?Sym    3.3485 eV  370.26 nm  f=0.0000  <S**2>=0.000
     249 -> 253        0.55746
     250 -> 254        0.42050

 Excited state symmetry could not be determined.
 Excited State  16:      Singlet-?Sym    3.3487 eV  370.25 nm  f=0.0000  <S**2>=0.000
     249 -> 254        0.55839
     250 -> 253        0.41983

 Excited state symmetry could not be determined.
 Excited State  17:      Singlet-?Sym    3.4010 eV  364.55 nm  f=0.0000  <S**2>=0.000
     245 -> 251        0.54821
     246 -> 252       -0.38852
     249 -> 255       -0.11409
     250 -> 256       -0.12255

 Excited state symmetry could not be determined.
 Excited State  18:      Singlet-?Sym    3.4029 eV  364.34 nm  f=0.0018  <S**2>=0.000
     245 -> 252        0.55250
     246 -> 251       -0.38620
     249 -> 256        0.10153
     250 -> 255        0.11985

 Excited state symmetry could not be determined.
 Excited State  19:      Singlet-?Sym    3.5426 eV  349.98 nm  f=0.0000  <S**2>=0.000
     243 -> 252       -0.48865
     244 -> 251        0.49694

 Excited state symmetry could not be determined.
 Excited State  20:      Singlet-?Sym    3.5439 eV  349.85 nm  f=0.0036  <S**2>=0.000
     243 -> 251        0.49680
     244 -> 252       -0.49340

 Excited state symmetry could not be determined.
 Excited State  21:      Singlet-?Sym    3.6388 eV  340.73 nm  f=0.0000  <S**2>=0.000
     245 -> 251        0.27167
     249 -> 255        0.34792
     250 -> 256        0.52074

 Excited state symmetry could not be determined.
 Excited State  22:      Singlet-?Sym    3.6545 eV  339.26 nm  f=0.4391  <S**2>=0.000
     245 -> 252       -0.26956
     246 -> 251       -0.11334
     249 -> 256        0.33018
     250 -> 255        0.52765

 Excited state symmetry could not be determined.
 Excited State  23:      Singlet-?Sym    3.7077 eV  334.39 nm  f=0.0000  <S**2>=0.000
     239 -> 252        0.43064
     240 -> 251        0.46252
     241 -> 252        0.17896
     242 -> 251        0.18049

 Excited state symmetry could not be determined.
 Excited State  24:      Singlet-?Sym    3.7083 eV  334.34 nm  f=0.0007  <S**2>=0.000
     239 -> 251        0.44463
     240 -> 252        0.46168
     241 -> 251        0.17310
     242 -> 252        0.15891

 Excited state symmetry could not be determined.
 Excited State  25:      Singlet-?Sym    3.7741 eV  328.51 nm  f=0.0000  <S**2>=0.000
     237 -> 252        0.28982
     238 -> 251       -0.30682
     239 -> 252       -0.14881
     240 -> 251       -0.10870
     241 -> 252        0.22033
     242 -> 251        0.45133

 Alpha  occ. eigenvalues --  -66.11618 -66.11618 -66.10771 -66.10771 -10.21448
 Alpha  occ. eigenvalues --  -10.21448 -10.21400 -10.21400 -10.20218 -10.20218
 Alpha  occ. eigenvalues --  -10.20205 -10.20205 -10.20164 -10.20164 -10.20122
 Alpha  occ. eigenvalues --  -10.20122 -10.19305 -10.19305 -10.19287 -10.19287
 Alpha  occ. eigenvalues --  -10.19236 -10.19236 -10.19215 -10.19215 -10.18176
 Alpha  occ. eigenvalues --  -10.18175 -10.17928 -10.17928 -10.17407 -10.17406
 Alpha  occ. eigenvalues --  -10.17340 -10.17340 -10.17332 -10.17332 -10.17311
 Alpha  occ. eigenvalues --  -10.17311 -10.17284 -10.17284 -10.17258 -10.17258
 Alpha  occ. eigenvalues --  -10.17257 -10.17257 -10.17234 -10.17233 -10.17200
 Alpha  occ. eigenvalues --  -10.17200 -10.17197 -10.17196 -10.17143 -10.17143
 Alpha  occ. eigenvalues --  -10.16906 -10.16906 -10.15707 -10.15707 -10.15541
 Alpha  occ. eigenvalues --  -10.15540 -10.12536 -10.12535 -10.12395 -10.12394
 Alpha  occ. eigenvalues --  -10.12256 -10.12256 -10.12001 -10.12001 -10.11947
 Alpha  occ. eigenvalues --  -10.11946 -10.11121 -10.11121  -5.26290  -5.26290
 Alpha  occ. eigenvalues --   -5.25492  -5.25491  -3.62265  -3.62265  -3.62102
 Alpha  occ. eigenvalues --   -3.62102  -3.62086  -3.62086  -3.61473  -3.61473
 Alpha  occ. eigenvalues --   -3.61302  -3.61302  -3.61271  -3.61270  -0.89247
 Alpha  occ. eigenvalues --   -0.89246  -0.87428  -0.87428  -0.85527  -0.85525
 Alpha  occ. eigenvalues --   -0.82325  -0.82324  -0.81650  -0.81647  -0.78810
 Alpha  occ. eigenvalues --   -0.78797  -0.78460  -0.78452  -0.77323  -0.77285
 Alpha  occ. eigenvalues --   -0.74899  -0.74876  -0.74396  -0.74253  -0.74152
 Alpha  occ. eigenvalues --   -0.74112  -0.73616  -0.73470  -0.73224  -0.73081
 Alpha  occ. eigenvalues --   -0.72262  -0.72089  -0.71136  -0.71135  -0.70947
 Alpha  occ. eigenvalues --   -0.70947  -0.70629  -0.70628  -0.70309  -0.70272
 Alpha  occ. eigenvalues --   -0.69125  -0.69036  -0.67640  -0.67631  -0.63145
 Alpha  occ. eigenvalues --   -0.63144  -0.62788  -0.62774  -0.62726  -0.62722
 Alpha  occ. eigenvalues --   -0.61456  -0.61452  -0.61246  -0.61226  -0.58815
 Alpha  occ. eigenvalues --   -0.58806  -0.54115  -0.54113  -0.53777  -0.53776
 Alpha  occ. eigenvalues --   -0.53265  -0.53251  -0.52628  -0.52615  -0.52544
 Alpha  occ. eigenvalues --   -0.52511  -0.49691  -0.49655  -0.48950  -0.48931
 Alpha  occ. eigenvalues --   -0.48546  -0.48543  -0.47756  -0.47749  -0.47167
 Alpha  occ. eigenvalues --   -0.47165  -0.45478  -0.45472  -0.44277  -0.44266
 Alpha  occ. eigenvalues --   -0.43999  -0.43958  -0.43814  -0.43813  -0.43607
 Alpha  occ. eigenvalues --   -0.43496  -0.43474  -0.43419  -0.43249  -0.43213
 Alpha  occ. eigenvalues --   -0.43105  -0.43104  -0.43002  -0.43002  -0.42753
 Alpha  occ. eigenvalues --   -0.42753  -0.42595  -0.42582  -0.42317  -0.42298
 Alpha  occ. eigenvalues --   -0.41628  -0.41627  -0.41497  -0.41496  -0.41235
 Alpha  occ. eigenvalues --   -0.41205  -0.41180  -0.41165  -0.40912  -0.40899
 Alpha  occ. eigenvalues --   -0.40791  -0.40771  -0.40424  -0.40424  -0.40013
 Alpha  occ. eigenvalues --   -0.40003  -0.39872  -0.39866  -0.38889  -0.38886
 Alpha  occ. eigenvalues --   -0.38722  -0.38701  -0.37140  -0.37135  -0.36706
 Alpha  occ. eigenvalues --   -0.36648  -0.35866  -0.35861  -0.34920  -0.34918
 Alpha  occ. eigenvalues --   -0.34511  -0.34454  -0.34118  -0.34023  -0.33662
 Alpha  occ. eigenvalues --   -0.33660  -0.33543  -0.33537  -0.33009  -0.32958
 Alpha  occ. eigenvalues --   -0.32372  -0.32346  -0.30946  -0.30788  -0.30717
 Alpha  occ. eigenvalues --   -0.30507  -0.30325  -0.30308  -0.30250  -0.29943
 Alpha  occ. eigenvalues --   -0.28826  -0.28600  -0.28319  -0.27955  -0.27089
 Alpha  occ. eigenvalues --   -0.26736  -0.26281  -0.26279  -0.26003  -0.25982
 Alpha  occ. eigenvalues --   -0.25797  -0.25233  -0.23670  -0.23632  -0.23391
 Alpha  occ. eigenvalues --   -0.22825  -0.21330  -0.21257  -0.16826  -0.16641
 Alpha virt. eigenvalues --   -0.09598  -0.09591  -0.03414  -0.03413  -0.01801
 Alpha virt. eigenvalues --   -0.01799  -0.01425  -0.01417   0.01825   0.01907
 Alpha virt. eigenvalues --    0.02628   0.02645   0.02918   0.02937   0.03100

 Mulliken atomic charges:
              1
     1  Si   0.532884
     2  C   -0.064234
     3  C    0.097168
     4  C   -0.162835
     5  H    0.067572
     6  C    0.096446
     7  C   -0.082455
     8  H    0.056410
     9  C   -0.065226
    10  H    0.059058
    11  C   -0.061930
    12  H    0.059408
    13  C   -0.082157
    14  H    0.056974
    15  C    0.109739
    16  C   -0.169730
    17  H    0.062538
    18  C    0.117652
    19  C    0.402781
    20  C   -0.621640
    21  C   -0.478000
    22  H    0.114481
    23  H    0.128182
    24  H    0.134050
    25  C   -0.521956
    26  H    0.124738
    27  H    0.118349
    28  H    0.121749
    29  C   -0.521119
    30  H    0.131365
    31  H    0.120637
    32  H    0.127956
    33  Si   0.551305
    34  C   -0.066923
    35  C    0.098224
    36  C   -0.163325
    37  H    0.066508
    38  C    0.099567
    39  C   -0.086887
    40  H    0.055586
    41  C   -0.062822
    42  H    0.058165
    43  C   -0.061385
    44  H    0.061429
    45  C   -0.106686
    46  H    0.065467
    47  C    0.114075
    48  C   -0.166129
    49  H    0.066167
    50  C    0.116322
    51  C    0.408255
    52  C   -0.625744
    53  C   -0.515558
    54  H    0.128592
    55  H    0.118789
    56  H    0.128739
    57  C   -0.521867
    58  H    0.125671
    59  H    0.119837
    60  H    0.125292
    61  C   -0.520510
    62  H    0.128954
    63  H    0.121187
    64  H    0.130855
    65  Si   0.551296
    66  C   -0.066974
    67  C    0.098239
    68  C   -0.163295
    69  H    0.066507
    70  C    0.099590
    71  C   -0.086881
    72  H    0.055583
    73  C   -0.062848
    74  H    0.058178
    75  C   -0.061392
    76  H    0.061435
    77  C   -0.106677
    78  H    0.065465
    79  C    0.114063
    80  C   -0.166049
    81  H    0.066147
    82  C    0.116223
    83  C    0.408139
    84  C   -0.625620
    85  C   -0.515563
    86  H    0.128596
    87  H    0.118785
    88  H    0.128732
    89  C   -0.521870
    90  H    0.125666
    91  H    0.119835
    92  H    0.125288
    93  C   -0.520511
    94  H    0.128955
    95  H    0.121189
    96  H    0.130862
    97  Si   0.532896
    98  C   -0.064192
    99  C    0.097129
   100  C   -0.162788
   101  H    0.067544
   102  C    0.096432
   103  C   -0.082484
   104  H    0.056426
   105  C   -0.065211
   106  H    0.059060
   107  C   -0.061936
   108  H    0.059402
   109  C   -0.082160
   110  H    0.056970
   111  C    0.109748
   112  C   -0.169752
   113  H    0.062550
   114  C    0.117704
   115  C    0.402862
   116  C   -0.621740
   117  C   -0.477996
   118  H    0.114483
   119  H    0.128185
   120  H    0.134052
   121  C   -0.521958
   122  H    0.124737
   123  H    0.118345
   124  H    0.121747
   125  C   -0.521113
   126  H    0.131364
   127  H    0.120638
   128  H    0.127960
 Sum of Mulliken atomic charges =   0.00000

 Dipole moment (field-independent basis, Debye):
    X=             -0.0005    Y=             -0.0004    Z=             -0.0003  Tot=              0.0006
 Quadrupole moment (field-independent basis, Debye-Ang):
   XX=           -381.8629   YY=           -380.1886   ZZ=           -401.0736
   XY=             -5.2724   XZ=             30.3018   YZ=             23.7436

 Normal termination of Gaussian 09 at Sat Feb  2 07:12:29 2013.
