 Gaussian 09, Revision C.01,
 Gaussian 09:  EM64L-G09RevC.01 23-Sep-2011

 ----------------------------------------------------------------
 #p scf=verytight b3lyp/6-31g(d,p) td(singlets,nstates=25) nosymm
 ----------------------------------------------------------------

 (Enter /apps/gaussian/g09_c01/g09/l101.exe)
 ----------------
 CSD ENTRY k01071
 ----------------
 Charge =  0 Multiplicity = 1

                          Input orientation:
 ---------------------------------------------------------------------
 Center     Atomic      Atomic             Coordinates (Angstroms)
 Number     Number       Type             X           Y           Z
 ---------------------------------------------------------------------
      1         14           0        9.411885   10.361962    8.666436
      2          6           0        7.455860    7.410396    5.973473
      3          6           0        8.220324    6.215071    5.871454
      4          6           0        9.399112    6.030366    6.618038
      5          1           0        9.685989    6.721148    7.204372
      6          6           0       10.154089    4.872582    6.525225
      7          6           0       11.363489    4.698947    7.271242
      8          1           0       11.657981    5.389074    7.853757
      9          6           0       12.093855    3.561679    7.156741
     10          1           0       12.892806    3.462628    7.660547
     11          6           0       11.672880    2.515872    6.288350
     12          1           0       12.187918    1.720156    6.226354
     13          6           0       10.546071    2.641758    5.552325
     14          1           0       10.288157    1.937357    4.969253
     15          6           0        9.734779    3.821518    5.636969
     16          6           0        8.574237    3.989412    4.898226
     17          1           0        8.293660    3.291948    4.316957
     18          6           0        7.792815    5.163143    4.982187
     19          6           0        7.917490    8.438985    6.852295
     20          6           0        8.398891    9.262639    7.593898
     21          6           0       10.452715   11.444404    7.581294
     22          1           0       11.112328   10.894048    7.109611
     23          1           0       10.916875   12.108722    8.132352
     24          1           0        9.881648   11.900638    6.929871
     25          6           0       10.535343    9.268278    9.661826
     26          1           0        9.999874    8.719986   10.273119
     27          1           0       11.157209    9.822301   10.178620
     28          1           0       11.041535    8.685081    9.059066
     29          6           0        8.318558   11.371812    9.771234
     30          1           0        7.741603   11.945414    9.224329
     31          1           0        8.871696   11.928741   10.359175
     32          1           0        7.762672   10.774464   10.315164
     33         14           0        4.653730    2.380001    1.529296
     34          6           0        6.609754    5.331567    4.222259
     35          6           0        5.845290    6.526892    4.324277
     36          6           0        4.666502    6.711597    3.577694
     37          1           0        4.379625    6.020815    2.991360
     38          6           0        3.911525    7.869381    3.670507
     39          6           0        2.702125    8.043015    2.924489
     40          1           0        2.407633    7.352889    2.341975
     41          6           0        1.971759    9.180284    3.038991
     42          1           0        1.172809    9.279335    2.535185
     43          6           0        2.392734   10.226091    3.907382
     44          1           0        1.877697   11.021807    3.969378
     45          6           0        3.519543   10.100205    4.643407
     46          1           0        3.777458   10.804606    5.226478
     47          6           0        4.330835    8.920445    4.558763
     48          6           0        5.491377    8.752550    5.297506
     49          1           0        5.771955    9.450015    5.878775
     50          6           0        6.272800    7.578820    5.213545
     51          6           0        6.148124    4.302978    3.343437
     52          6           0        5.666724    3.479324    2.601833
     53          6           0        3.612900    1.297558    2.614438
     54          1           0        2.953286    1.847915    3.086121
     55          1           0        3.148739    0.633240    2.063380
     56          1           0        4.183966    0.841325    3.265861
     57          6           0        3.530271    3.473685    0.533905
     58          1           0        4.065740    4.021976   -0.077387
     59          1           0        2.908406    2.919662    0.017112
     60          1           0        3.024080    4.056882    1.136666
     61          6           0        5.747057    1.370150    0.424498
     62          1           0        6.324012    0.796549    0.971403
     63          1           0        5.193919    0.813222   -0.163444
     64          1           0        6.302942    1.967498   -0.119433
     65         14           0       15.244900   10.362000    8.666440
     66          6           0       13.288900    7.410400    5.973470
     67          6           0       14.053300    6.215070    5.871450
     68          6           0       15.232100    6.030370    6.618040
     69          1           0       15.519000    6.721150    7.204370
     70          6           0       15.987100    4.872580    6.525220
     71          6           0       17.196500    4.698950    7.271240
     72          1           0       17.491000    5.389070    7.853760
     73          6           0       17.926900    3.561680    7.156740
     74          1           0       18.725800    3.462630    7.660550
     75          6           0       17.505900    2.515870    6.288350
     76          1           0       18.020900    1.720160    6.226350
     77          6           0       16.379100    2.641760    5.552320
     78          1           0       16.121200    1.937360    4.969250
     79          6           0       15.567800    3.821520    5.636970
     80          6           0       14.407200    3.989410    4.898230
     81          1           0       14.126700    3.291950    4.316960
     82          6           0       13.625800    5.163140    4.982190
     83          6           0       13.750500    8.438990    6.852290
     84          6           0       14.231900    9.262640    7.593900
     85          6           0       16.285700   11.444400    7.581290
     86          1           0       16.945300   10.894000    7.109610
     87          1           0       16.749900   12.108700    8.132350
     88          1           0       15.714600   11.900600    6.929870
     89          6           0       16.368300    9.268280    9.661830
     90          1           0       15.832900    8.719990   10.273100
     91          1           0       16.990200    9.822300   10.178600
     92          1           0       16.874500    8.685080    9.059070
     93          6           0       14.151600   11.371800    9.771230
     94          1           0       13.574600   11.945400    9.224330
     95          1           0       14.704700   11.928700   10.359200
     96          1           0       13.595700   10.774500   10.315200
     97         14           0       10.486700    2.380000    1.529300
     98          6           0       12.442800    5.331570    4.222260
     99          6           0       11.678300    6.526890    4.324280
    100          6           0       10.499500    6.711600    3.577690
    101          1           0       10.212600    6.020820    2.991360
    102          6           0        9.744520    7.869380    3.670510
    103          6           0        8.535130    8.043020    2.924490
    104          1           0        8.240630    7.352890    2.341970
    105          6           0        7.804760    9.180280    3.038990
    106          1           0        7.005810    9.279330    2.535190
    107          6           0        8.225730   10.226100    3.907380
    108          1           0        7.710700   11.021800    3.969380
    109          6           0        9.352540   10.100200    4.643410
    110          1           0        9.610460   10.804600    5.226480
    111          6           0       10.163800    8.920440    4.558760
    112          6           0       11.324400    8.752550    5.297510
    113          1           0       11.605000    9.450010    5.878770
    114          6           0       12.105800    7.578820    5.213550
    115          6           0       11.981100    4.302980    3.343440
    116          6           0       11.499700    3.479320    2.601830
    117          6           0        9.445900    1.297560    2.614440
    118          1           0        8.786290    1.847920    3.086120
    119          1           0        8.981740    0.633240    2.063380
    120          1           0       10.017000    0.841325    3.265860
    121          6           0        9.363270    3.473690    0.533905
    122          1           0        9.898740    4.021980   -0.077387
    123          1           0        8.741410    2.919660    0.017112
    124          1           0        8.857080    4.056880    1.136670
    125          6           0       11.580100    1.370150    0.424498
    126          1           0       12.157000    0.796549    0.971403
    127          1           0       11.026900    0.813222   -0.163444
    128          1           0       12.135900    1.967500   -0.119433
 ---------------------------------------------------------------------

 SCF Done:  E(RB3LYP) =  -3632.28276145     A.U. after   16 cycles

 Excitation energies and oscillator strengths:

 Excited state symmetry could not be determined.
 Excited State   1:      Singlet-?Sym    1.2996 eV  954.03 nm  f=0.0000  <S**2>=0.000
     249 -> 251        0.69119
     250 -> 252       -0.15037
 This state for optimization and/or second-order correction.
 Total Energy, E(TD-HF/TD-KS) =  -3632.23500244
 Copying the excited state density for this state as the 1-particle RhoCI density.

 Excited state symmetry could not be determined.
 Excited State   2:      Singlet-?Sym    1.3343 eV  929.22 nm  f=0.0917  <S**2>=0.000
     249 -> 252       -0.16817
     250 -> 251        0.68698

 Excited state symmetry could not be determined.
 Excited State   3:      Singlet-?Sym    1.7788 eV  697.01 nm  f=0.0000  <S**2>=0.000
     249 -> 251        0.15614
     250 -> 252        0.68940

 Excited state symmetry could not be determined.
 Excited State   4:      Singlet-?Sym    1.8596 eV  666.73 nm  f=0.1522  <S**2>=0.000
     249 -> 252        0.68398
     250 -> 251        0.17565

 Excited state symmetry could not be determined.
 Excited State   5:      Singlet-?Sym    2.3796 eV  521.04 nm  f=0.0000  <S**2>=0.000
     248 -> 251        0.69914

 Excited state symmetry could not be determined.
 Excited State   6:      Singlet-?Sym    2.4244 eV  511.41 nm  f=0.0054  <S**2>=0.000
     247 -> 251        0.69812

 Excited state symmetry could not be determined.
 Excited State   7:      Singlet-?Sym    2.7507 eV  450.74 nm  f=0.0000  <S**2>=0.000
     246 -> 251        0.66688
     247 -> 252       -0.12893
     250 -> 257       -0.10114

 Excited state symmetry could not be determined.
 Excited State   8:      Singlet-?Sym    2.8162 eV  440.25 nm  f=0.0182  <S**2>=0.000
     248 -> 252        0.68222
     249 -> 253       -0.13113

 Excited state symmetry could not be determined.
 Excited State   9:      Singlet-?Sym    2.8388 eV  436.75 nm  f=0.0000  <S**2>=0.000
     245 -> 251       -0.35517
     247 -> 252        0.56495
     250 -> 253        0.16785

 Excited state symmetry could not be determined.
 Excited State  10:      Singlet-?Sym    2.9746 eV  416.81 nm  f=0.0000  <S**2>=0.000
     245 -> 251        0.56837
     246 -> 251        0.10550
     247 -> 252        0.36740

 Excited state symmetry could not be determined.
 Excited State  11:      Singlet-?Sym    3.0692 eV  403.96 nm  f=0.0112  <S**2>=0.000
     244 -> 251        0.32465
     246 -> 252       -0.16125
     248 -> 252        0.13829
     249 -> 253        0.54343
     250 -> 255        0.16408

 Excited state symmetry could not be determined.
 Excited State  12:      Singlet-?Sym    3.0853 eV  401.86 nm  f=0.0000  <S**2>=0.000
     245 -> 251        0.12265
     247 -> 252       -0.12825
     250 -> 253        0.67138

 Excited state symmetry could not be determined.
 Excited State  13:      Singlet-?Sym    3.1168 eV  397.79 nm  f=0.0669  <S**2>=0.000
     243 -> 251        0.12223
     244 -> 251        0.51112
     245 -> 252       -0.10198
     246 -> 252        0.17997
     249 -> 253       -0.29962
     249 -> 257       -0.20983
     250 -> 258        0.14312

 Excited state symmetry could not be determined.
 Excited State  14:      Singlet-?Sym    3.1665 eV  391.55 nm  f=0.0920  <S**2>=0.000
     243 -> 251        0.13460
     244 -> 251       -0.15036
     245 -> 252       -0.10499
     246 -> 252        0.51244
     249 -> 253        0.26915
     249 -> 256        0.16781
     249 -> 257       -0.17799
     250 -> 258        0.17075

 Excited state symmetry could not be determined.
 Excited State  15:      Singlet-?Sym    3.2286 eV  384.02 nm  f=0.0104  <S**2>=0.000
     244 -> 251       -0.14312
     245 -> 252       -0.14749
     250 -> 254        0.64508
     250 -> 255       -0.12619

 Excited state symmetry could not be determined.
 Excited State  16:      Singlet-?Sym    3.2566 eV  380.72 nm  f=0.0000  <S**2>=0.000
     249 -> 254        0.67922

 Excited state symmetry could not be determined.
 Excited State  17:      Singlet-?Sym    3.2784 eV  378.18 nm  f=0.0081  <S**2>=0.000
     243 -> 251        0.58753
     245 -> 252        0.11936
     246 -> 252       -0.28506
     249 -> 257       -0.11609
     250 -> 258        0.10094

 Excited state symmetry could not be determined.
 Excited State  18:      Singlet-?Sym    3.4011 eV  364.54 nm  f=0.0066  <S**2>=0.000
     242 -> 251       -0.14157
     244 -> 251        0.17023
     245 -> 252        0.55427
     246 -> 252        0.16305
     249 -> 257        0.10802
     250 -> 254        0.14675
     250 -> 255       -0.24711

 Excited state symmetry could not be determined.
 Excited State  19:      Singlet-?Sym    3.4295 eV  361.52 nm  f=0.0000  <S**2>=0.000
     241 -> 251        0.16750
     244 -> 252        0.39039
     245 -> 251        0.11308
     249 -> 255        0.48670
     250 -> 256       -0.10366
     250 -> 257       -0.19603

 Excited state symmetry could not be determined.
 Excited State  20:      Singlet-?Sym    3.4997 eV  354.27 nm  f=0.0515  <S**2>=0.000
     242 -> 251        0.57935
     244 -> 251        0.15043
     246 -> 252       -0.10169
     250 -> 255       -0.33113

 Excited state symmetry could not be determined.
 Excited State  21:      Singlet-?Sym    3.5140 eV  352.83 nm  f=0.0722  <S**2>=0.000
     242 -> 251        0.31090
     245 -> 252        0.23887
     249 -> 256        0.21715
     250 -> 254        0.13391
     250 -> 255        0.50247

 Excited state symmetry could not be determined.
 Excited State  22:      Singlet-?Sym    3.5158 eV  352.65 nm  f=0.0000  <S**2>=0.000
     239 -> 251       -0.10870
     241 -> 251        0.13127
     243 -> 252        0.38100
     246 -> 251       -0.11454
     249 -> 255       -0.32034
     249 -> 258        0.16149
     250 -> 256        0.14206
     250 -> 257       -0.37307

 Excited state symmetry could not be determined.
 Excited State  23:      Singlet-?Sym    3.5499 eV  349.26 nm  f=0.0000  <S**2>=0.000
     243 -> 252        0.13138
     244 -> 252       -0.24496
     249 -> 254        0.12574
     249 -> 255        0.30937
     250 -> 256        0.53937

 Excited state symmetry could not be determined.
 Excited State  24:      Singlet-?Sym    3.6183 eV  342.65 nm  f=0.0180  <S**2>=0.000
     239 -> 252        0.17018
     240 -> 251        0.65413
     249 -> 256       -0.13676

 Excited state symmetry could not be determined.
 Excited State  25:      Singlet-?Sym    3.6346 eV  341.12 nm  f=0.0000  <S**2>=0.000
     239 -> 251        0.62725
     240 -> 252        0.18459
     241 -> 251       -0.16865
     250 -> 257       -0.13251

 Alpha  occ. eigenvalues --  -66.11707 -66.11706 -66.11435 -66.11435 -10.21138
 Alpha  occ. eigenvalues --  -10.21138 -10.20942 -10.20941 -10.19865 -10.19865
 Alpha  occ. eigenvalues --  -10.19781 -10.19781 -10.19769 -10.19769 -10.19562
 Alpha  occ. eigenvalues --  -10.19562 -10.19147 -10.19147 -10.19083 -10.19083
 Alpha  occ. eigenvalues --  -10.18615 -10.18615 -10.18412 -10.18412 -10.18209
 Alpha  occ. eigenvalues --  -10.18209 -10.17704 -10.17704 -10.17222 -10.17222
 Alpha  occ. eigenvalues --  -10.17204 -10.17204 -10.17143 -10.17143 -10.17106
 Alpha  occ. eigenvalues --  -10.17106 -10.17083 -10.17083 -10.17045 -10.17044
 Alpha  occ. eigenvalues --  -10.16783 -10.16783 -10.16444 -10.16444 -10.16411
 Alpha  occ. eigenvalues --  -10.16411 -10.16311 -10.16311 -10.16269 -10.16269
 Alpha  occ. eigenvalues --  -10.16105 -10.16105 -10.15711 -10.15711 -10.15204
 Alpha  occ. eigenvalues --  -10.15204 -10.12736 -10.12736 -10.12442 -10.12441
 Alpha  occ. eigenvalues --  -10.12395 -10.12395 -10.12311 -10.12310 -10.12298
 Alpha  occ. eigenvalues --  -10.12298 -10.11862 -10.11862  -5.26375  -5.26375
 Alpha  occ. eigenvalues --   -5.26090  -5.26090  -3.62349  -3.62349  -3.62186
 Alpha  occ. eigenvalues --   -3.62185  -3.62173  -3.62173  -3.62063  -3.62062
 Alpha  occ. eigenvalues --   -3.61905  -3.61905  -3.61889  -3.61889  -0.89086
 Alpha  occ. eigenvalues --   -0.88738  -0.87039  -0.86876  -0.85232  -0.84809
 Alpha  occ. eigenvalues --   -0.82001  -0.81713  -0.81344  -0.81311  -0.78371
 Alpha  occ. eigenvalues --   -0.78352  -0.78009  -0.77974  -0.76857  -0.76685
 Alpha  occ. eigenvalues --   -0.74986  -0.74842  -0.74536  -0.74409  -0.73846
 Alpha  occ. eigenvalues --   -0.73572  -0.73328  -0.73286  -0.72962  -0.72938
 Alpha  occ. eigenvalues --   -0.71965  -0.71824  -0.71303  -0.71301  -0.71128
 Alpha  occ. eigenvalues --   -0.71128  -0.70992  -0.70992  -0.70662  -0.70659
 Alpha  occ. eigenvalues --   -0.68829  -0.68804  -0.67347  -0.67080  -0.62756
 Alpha  occ. eigenvalues --   -0.62660  -0.62554  -0.62462  -0.62302  -0.62257
 Alpha  occ. eigenvalues --   -0.61206  -0.61097  -0.60683  -0.60583  -0.58336
 Alpha  occ. eigenvalues --   -0.58330  -0.53741  -0.53701  -0.53360  -0.53307
 Alpha  occ. eigenvalues --   -0.52891  -0.52860  -0.52470  -0.52456  -0.52182
 Alpha  occ. eigenvalues --   -0.52073  -0.49680  -0.49669  -0.48712  -0.48667
 Alpha  occ. eigenvalues --   -0.48173  -0.48020  -0.47653  -0.47495  -0.46889
 Alpha  occ. eigenvalues --   -0.46879  -0.45094  -0.45003  -0.44269  -0.44266
 Alpha  occ. eigenvalues --   -0.44223  -0.43977  -0.43906  -0.43815  -0.43484
 Alpha  occ. eigenvalues --   -0.43430  -0.43296  -0.43282  -0.43216  -0.43170
 Alpha  occ. eigenvalues --   -0.43079  -0.43074  -0.42802  -0.42787  -0.42763
 Alpha  occ. eigenvalues --   -0.42719  -0.42489  -0.42326  -0.42300  -0.42103
 Alpha  occ. eigenvalues --   -0.42074  -0.41809  -0.41802  -0.41545  -0.41534
 Alpha  occ. eigenvalues --   -0.41387  -0.41336  -0.41173  -0.41155  -0.40725
 Alpha  occ. eigenvalues --   -0.40504  -0.40487  -0.40344  -0.40286  -0.40158
 Alpha  occ. eigenvalues --   -0.40142  -0.39476  -0.39435  -0.38582  -0.38460
 Alpha  occ. eigenvalues --   -0.38401  -0.37786  -0.37102  -0.36749  -0.36687
 Alpha  occ. eigenvalues --   -0.35435  -0.35415  -0.35313  -0.34930  -0.34925
 Alpha  occ. eigenvalues --   -0.34624  -0.34624  -0.33550  -0.33475  -0.33254
 Alpha  occ. eigenvalues --   -0.33229  -0.33072  -0.33061  -0.32458  -0.32457
 Alpha  occ. eigenvalues --   -0.32182  -0.31258  -0.30978  -0.30906  -0.30825
 Alpha  occ. eigenvalues --   -0.30687  -0.30440  -0.30409  -0.30214  -0.30096
 Alpha  occ. eigenvalues --   -0.28848  -0.28723  -0.27995  -0.27788  -0.27679
 Alpha  occ. eigenvalues --   -0.26976  -0.26312  -0.26285  -0.25889  -0.25789
 Alpha  occ. eigenvalues --   -0.25437  -0.24879  -0.24089  -0.23388  -0.22730
 Alpha  occ. eigenvalues --   -0.22102  -0.20854  -0.20792  -0.16418  -0.16337
 Alpha virt. eigenvalues --   -0.10112  -0.08487  -0.03299  -0.02754  -0.01782
 Alpha virt. eigenvalues --   -0.01344  -0.01228  -0.00712   0.02123   0.02158
 Alpha virt. eigenvalues --    0.02549   0.02570   0.02669   0.03130   0.03164

 Mulliken atomic charges:
              1
     1  Si   0.560594
     2  C   -0.062585
     3  C    0.097056
     4  C   -0.157750
     5  H    0.067811
     6  C    0.096864
     7  C   -0.086193
     8  H    0.059127
     9  C   -0.059371
    10  H    0.064610
    11  C   -0.066576
    12  H    0.053020
    13  C   -0.036935
    14  H    0.025909
    15  C    0.108106
    16  C   -0.154504
    17  H    0.040804
    18  C    0.126637
    19  C    0.428870
    20  C   -0.636322
    21  C   -0.530687
    22  H    0.140590
    23  H    0.116776
    24  H    0.129634
    25  C   -0.525571
    26  H    0.123392
    27  H    0.117965
    28  H    0.137905
    29  C   -0.518581
    30  H    0.126846
    31  H    0.120534
    32  H    0.131417
    33  Si   0.556324
    34  C   -0.083769
    35  C    0.100462
    36  C   -0.167597
    37  H    0.064835
    38  C    0.094223
    39  C   -0.083086
    40  H    0.055229
    41  C   -0.065930
    42  H    0.058362
    43  C   -0.062587
    44  H    0.058503
    45  C   -0.084421
    46  H    0.055588
    47  C    0.107964
    48  C   -0.172944
    49  H    0.060247
    50  C    0.123529
    51  C    0.406428
    52  C   -0.627307
    53  C   -0.515220
    54  H    0.129171
    55  H    0.118616
    56  H    0.129219
    57  C   -0.521536
    58  H    0.125591
    59  H    0.119930
    60  H    0.126206
    61  C   -0.527237
    62  H    0.129046
    63  H    0.121577
    64  H    0.131188
    65  Si   0.556328
    66  C   -0.083737
    67  C    0.100458
    68  C   -0.167599
    69  H    0.064838
    70  C    0.094227
    71  C   -0.083102
    72  H    0.055229
    73  C   -0.065908
    74  H    0.058349
    75  C   -0.062577
    76  H    0.058494
    77  C   -0.084420
    78  H    0.055586
    79  C    0.107934
    80  C   -0.172931
    81  H    0.060238
    82  C    0.123580
    83  C    0.406412
    84  C   -0.627310
    85  C   -0.515217
    86  H    0.129177
    87  H    0.118620
    88  H    0.129225
    89  C   -0.521532
    90  H    0.125594
    91  H    0.119925
    92  H    0.126203
    93  C   -0.527229
    94  H    0.129045
    95  H    0.121578
    96  H    0.131190
    97  Si   0.560589
    98  C   -0.062613
    99  C    0.097044
   100  C   -0.157751
   101  H    0.067811
   102  C    0.096881
   103  C   -0.086204
   104  H    0.059130
   105  C   -0.059365
   106  H    0.064607
   107  C   -0.066575
   108  H    0.053014
   109  C   -0.036931
   110  H    0.025910
   111  C    0.108084
   112  C   -0.154500
   113  H    0.040805
   114  C    0.126619
   115  C    0.428869
   116  C   -0.636319
   117  C   -0.530685
   118  H    0.140593
   119  H    0.116780
   120  H    0.129636
   121  C   -0.525570
   122  H    0.123395
   123  H    0.117966
   124  H    0.137905
   125  C   -0.518582
   126  H    0.126846
   127  H    0.120527
   128  H    0.131418
 Sum of Mulliken atomic charges =   0.00000

 Dipole moment (field-independent basis, Debye):
    X=              0.0002    Y=              0.0005    Z=              0.0005  Tot=              0.0007
 Quadrupole moment (field-independent basis, Debye-Ang):
   XX=           -388.2853   YY=           -380.3767   ZZ=           -401.4450
   XY=             -4.1139   XZ=             28.6439   YZ=             22.4264

 Normal termination of Gaussian 09 at Sat Feb  2 10:03:25 2013.
