 Gaussian 09, Revision C.01,
 Gaussian 09:  EM64L-G09RevC.01 23-Sep-2011

 ----------------------------------------------------------------
 #p scf=verytight b3lyp/6-31g(d,p) td(singlets,nstates=25) nosymm
 ----------------------------------------------------------------

 (Enter /apps/gaussian/g09_c01/g09/l101.exe)
 ----------------
 CSD ENTRY k01071
 ----------------
 Charge =  0 Multiplicity = 1

                          Input orientation:
 ---------------------------------------------------------------------
 Center     Atomic      Atomic             Coordinates (Angstroms)
 Number     Number       Type             X           Y           Z
 ---------------------------------------------------------------------
      1         14           0        9.411885   10.361962    8.666436
      2          6           0        7.455860    7.410396    5.973473
      3          6           0        8.220324    6.215071    5.871454
      4          6           0        9.399112    6.030366    6.618038
      5          1           0        9.685989    6.721148    7.204372
      6          6           0       10.154089    4.872582    6.525225
      7          6           0       11.363489    4.698947    7.271242
      8          1           0       11.657981    5.389074    7.853757
      9          6           0       12.093855    3.561679    7.156741
     10          1           0       12.892806    3.462628    7.660547
     11          6           0       11.672880    2.515872    6.288350
     12          1           0       12.187918    1.720156    6.226354
     13          6           0       10.546071    2.641758    5.552325
     14          1           0       10.288157    1.937357    4.969253
     15          6           0        9.734779    3.821518    5.636969
     16          6           0        8.574237    3.989412    4.898226
     17          1           0        8.293660    3.291948    4.316957
     18          6           0        7.792815    5.163143    4.982187
     19          6           0        7.917490    8.438985    6.852295
     20          6           0        8.398891    9.262639    7.593898
     21          6           0       10.452715   11.444404    7.581294
     22          1           0       11.112328   10.894048    7.109611
     23          1           0       10.916875   12.108722    8.132352
     24          1           0        9.881648   11.900638    6.929871
     25          6           0       10.535343    9.268278    9.661826
     26          1           0        9.999874    8.719986   10.273119
     27          1           0       11.157209    9.822301   10.178620
     28          1           0       11.041535    8.685081    9.059066
     29          6           0        8.318558   11.371812    9.771234
     30          1           0        7.741603   11.945414    9.224329
     31          1           0        8.871696   11.928741   10.359175
     32          1           0        7.762672   10.774464   10.315164
     33         14           0        4.653730    2.380001    1.529296
     34          6           0        6.609754    5.331567    4.222259
     35          6           0        5.845290    6.526892    4.324277
     36          6           0        4.666502    6.711597    3.577694
     37          1           0        4.379625    6.020815    2.991360
     38          6           0        3.911525    7.869381    3.670507
     39          6           0        2.702125    8.043015    2.924489
     40          1           0        2.407633    7.352889    2.341975
     41          6           0        1.971759    9.180284    3.038991
     42          1           0        1.172809    9.279335    2.535185
     43          6           0        2.392734   10.226091    3.907382
     44          1           0        1.877697   11.021807    3.969378
     45          6           0        3.519543   10.100205    4.643407
     46          1           0        3.777458   10.804606    5.226478
     47          6           0        4.330835    8.920445    4.558763
     48          6           0        5.491377    8.752550    5.297506
     49          1           0        5.771955    9.450015    5.878775
     50          6           0        6.272800    7.578820    5.213545
     51          6           0        6.148124    4.302978    3.343437
     52          6           0        5.666724    3.479324    2.601833
     53          6           0        3.612900    1.297558    2.614438
     54          1           0        2.953286    1.847915    3.086121
     55          1           0        3.148739    0.633240    2.063380
     56          1           0        4.183966    0.841325    3.265861
     57          6           0        3.530271    3.473685    0.533905
     58          1           0        4.065740    4.021976   -0.077387
     59          1           0        2.908406    2.919662    0.017112
     60          1           0        3.024080    4.056882    1.136666
     61          6           0        5.747057    1.370150    0.424498
     62          1           0        6.324012    0.796549    0.971403
     63          1           0        5.193919    0.813222   -0.163444
     64          1           0        6.302942    1.967498   -0.119433
 ---------------------------------------------------------------------

 SCF Done:  E(RB3LYP) =  -1816.15918621     A.U. after   15 cycles

 Excitation energies and oscillator strengths:

 Excited state symmetry could not be determined.
 Excited State   1:      Singlet-?Sym    1.7440 eV  710.93 nm  f=0.1419  <S**2>=0.000
     125 ->126         0.71135
     125 <-126        -0.10971
 This state for optimization and/or second-order correction.
 Total Energy, E(TD-HF/TD-KS) =  -1816.09509677
 Copying the excited state density for this state as the 1-particle RhoCI density.

 Excited state symmetry could not be determined.
 Excited State   2:      Singlet-?Sym    2.7287 eV  454.37 nm  f=0.0000  <S**2>=0.000
     124 ->126         0.68344
     125 ->127        -0.17106

 Excited state symmetry could not be determined.
 Excited State   3:      Singlet-?Sym    3.1897 eV  388.70 nm  f=0.0435  <S**2>=0.000
     122 ->126        -0.19125
     123 ->126         0.60113
     125 ->128        -0.26497
     125 ->129        -0.16828

 Excited state symmetry could not be determined.
 Excited State   4:      Singlet-?Sym    3.1987 eV  387.61 nm  f=0.0500  <S**2>=0.000
     122 ->126         0.53143
     123 ->126         0.21444
     125 ->128        -0.14232
     125 ->129         0.38357

 Excited state symmetry could not be determined.
 Excited State   5:      Singlet-?Sym    3.2040 eV  386.97 nm  f=0.0000  <S**2>=0.000
     124 ->126         0.16941
     125 ->127         0.68128

 Excited state symmetry could not be determined.
 Excited State   6:      Singlet-?Sym    3.6739 eV  337.48 nm  f=0.2440  <S**2>=0.000
     123 ->126         0.29562
     125 ->128         0.63312

 Excited state symmetry could not be determined.
 Excited State   7:      Singlet-?Sym    3.7534 eV  330.33 nm  f=0.0020  <S**2>=0.000
     120 ->126         0.69775

 Excited state symmetry could not be determined.
 Excited State   8:      Singlet-?Sym    3.7979 eV  326.45 nm  f=0.0000  <S**2>=0.000
     119 ->126         0.66595
     121 ->126         0.21125

 Excited state symmetry could not be determined.
 Excited State   9:      Singlet-?Sym    3.8682 eV  320.52 nm  f=0.0000  <S**2>=0.000
     119 ->126        -0.21163
     121 ->126         0.64339
     125 ->130        -0.16484

 Excited state symmetry could not be determined.
 Excited State  10:      Singlet-?Sym    4.2163 eV  294.06 nm  f=2.3037  <S**2>=0.000
     122 ->126        -0.42540
     125 ->129         0.56492

 Excited state symmetry could not be determined.
 Excited State  11:      Singlet-?Sym    4.3531 eV  284.82 nm  f=0.0354  <S**2>=0.000
     118 ->126         0.67769
     125 ->133        -0.15119

 Excited state symmetry could not be determined.
 Excited State  12:      Singlet-?Sym    4.4894 eV  276.17 nm  f=0.0000  <S**2>=0.000
     116 ->126         0.36848
     121 ->126         0.13992
     122 ->127         0.21434
     124 ->129         0.21585
     125 ->130         0.46887
     125 ->131        -0.13113

 Excited state symmetry could not be determined.
 Excited State  13:      Singlet-?Sym    4.5112 eV  274.84 nm  f=0.0000  <S**2>=0.000
     125 ->131         0.68505

 Excited state symmetry could not be determined.
 Excited State  14:      Singlet-?Sym    4.5433 eV  272.89 nm  f=0.0000  <S**2>=0.000
     117 ->126         0.66456
     124 ->128         0.10319
     125 ->134        -0.17281

 Excited state symmetry could not be determined.
 Excited State  15:      Singlet-?Sym    4.5626 eV  271.74 nm  f=0.0746  <S**2>=0.000
     122 ->129        -0.10786
     124 ->127         0.66636
     125 ->133         0.18847

 Excited state symmetry could not be determined.
 Excited State  16:      Singlet-?Sym    4.6176 eV  268.50 nm  f=0.0010  <S**2>=0.000
     125 ->132         0.69162

 Excited state symmetry could not be determined.
 Excited State  17:      Singlet-?Sym    4.7228 eV  262.52 nm  f=0.0000  <S**2>=0.000
     116 ->126        -0.44144
     124 ->129        -0.27601
     125 ->130         0.44227
     125 ->135         0.10243

 Excited state symmetry could not be determined.
 Excited State  18:      Singlet-?Sym    4.7961 eV  258.51 nm  f=0.0000  <S**2>=0.000
     116 ->126        -0.31353
     122 ->127         0.47255
     124 ->129         0.36257
     125 ->130        -0.16029

 Excited state symmetry could not be determined.
 Excited State  19:      Singlet-?Sym    4.8328 eV  256.55 nm  f=0.0284  <S**2>=0.000
     118 ->126         0.17244
     124 ->127        -0.16670
     125 ->133         0.64261

 Excited state symmetry could not be determined.
 Excited State  20:      Singlet-?Sym    4.8544 eV  255.41 nm  f=0.0000  <S**2>=0.000
     123 ->127         0.10617
     124 ->128         0.63668
     125 ->134         0.24454

 Excited state symmetry could not be determined.
 Excited State  21:      Singlet-?Sym    4.9259 eV  251.70 nm  f=0.0000  <S**2>=0.000
     123 ->127         0.65767
     124 ->128        -0.18015
     125 ->134         0.15681

 Excited state symmetry could not be determined.
 Excited State  22:      Singlet-?Sym    5.1444 eV  241.01 nm  f=0.0000  <S**2>=0.000
     117 ->126         0.19984
     123 ->127        -0.20123
     124 ->128        -0.18306
     125 ->134         0.60691

 Excited state symmetry could not be determined.
 Excited State  23:      Singlet-?Sym    5.1470 eV  240.89 nm  f=0.0026  <S**2>=0.000
     113 ->126         0.19301
     115 ->126         0.66827

 Excited state symmetry could not be determined.
 Excited State  24:      Singlet-?Sym    5.1682 eV  239.90 nm  f=0.0039  <S**2>=0.000
     121 ->127        -0.18963
     122 ->128         0.45242
     123 ->129         0.45358
     124 ->130         0.17137

 Excited state symmetry could not be determined.
 Excited State  25:      Singlet-?Sym    5.2222 eV  237.42 nm  f=0.0000  <S**2>=0.000
     114 ->126         0.69206

 Alpha  occ. eigenvalues --  -66.11606 -66.11606 -10.21453 -10.21452 -10.20222
 Alpha  occ. eigenvalues --  -10.20221 -10.20155 -10.20155 -10.19310 -10.19310
 Alpha  occ. eigenvalues --  -10.19229 -10.19229 -10.18185 -10.18185 -10.17360
 Alpha  occ. eigenvalues --  -10.17360 -10.17314 -10.17314 -10.17286 -10.17286
 Alpha  occ. eigenvalues --  -10.17238 -10.17238 -10.17210 -10.17210 -10.17198
 Alpha  occ. eigenvalues --  -10.17198 -10.15730 -10.15730 -10.12519 -10.12519
 Alpha  occ. eigenvalues --  -10.12359 -10.12359 -10.12251 -10.12251  -5.26279
 Alpha  occ. eigenvalues --   -5.26279  -3.62255  -3.62254  -3.62090  -3.62090
 Alpha  occ. eigenvalues --   -3.62075  -3.62075  -0.89237  -0.87363  -0.85452
 Alpha  occ. eigenvalues --   -0.82255  -0.81674  -0.78750  -0.78354  -0.77187
 Alpha  occ. eigenvalues --   -0.74992  -0.74540  -0.74121  -0.73467  -0.73321
 Alpha  occ. eigenvalues --   -0.72216  -0.71115  -0.71115  -0.70928  -0.70928
 Alpha  occ. eigenvalues --   -0.69157  -0.67616  -0.63109  -0.62815  -0.62691
 Alpha  occ. eigenvalues --   -0.61424  -0.61213  -0.58762  -0.54071  -0.53730
 Alpha  occ. eigenvalues --   -0.53254  -0.52695  -0.52534  -0.49807  -0.48979
 Alpha  occ. eigenvalues --   -0.48526  -0.47791  -0.47133  -0.45431  -0.44285
 Alpha  occ. eigenvalues --   -0.44017  -0.43862  -0.43725  -0.43424  -0.43173
 Alpha  occ. eigenvalues --   -0.43076  -0.43076  -0.42991  -0.42988  -0.42501
 Alpha  occ. eigenvalues --   -0.41606  -0.41602  -0.41504  -0.41464  -0.41192
 Alpha  occ. eigenvalues --   -0.40799  -0.40403  -0.40402  -0.39893  -0.38880
 Alpha  occ. eigenvalues --   -0.38713  -0.37122  -0.36503  -0.35834  -0.34943
 Alpha  occ. eigenvalues --   -0.34887  -0.34117  -0.33641  -0.33532  -0.32976
 Alpha  occ. eigenvalues --   -0.32191  -0.30906  -0.30712  -0.30681  -0.30182
 Alpha  occ. eigenvalues --   -0.28611  -0.28550  -0.27726  -0.26336  -0.26197
 Alpha  occ. eigenvalues --   -0.25792  -0.23672  -0.23363  -0.21593  -0.16800
 Alpha virt. eigenvalues --   -0.09606  -0.03369  -0.01827  -0.01367   0.01876
 Alpha virt. eigenvalues --    0.02542   0.02922   0.02961   0.03912   0.05796
 Alpha virt. eigenvalues --    0.08500   0.08538   0.09630   0.10103   0.11650

 Mulliken atomic charges:
              1
     1  Si   0.551541
     2  C   -0.065855
     3  C    0.098195
     4  C   -0.162597
     5  H    0.066638
     6  C    0.096716
     7  C   -0.082266
     8  H    0.056237
     9  C   -0.065028
    10  H    0.059243
    11  C   -0.061955
    12  H    0.059476
    13  C   -0.082033
    14  H    0.057057
    15  C    0.109634
    16  C   -0.169328
    17  H    0.062715
    18  C    0.117435
    19  C    0.408313
    20  C   -0.624977
    21  C   -0.515607
    22  H    0.128582
    23  H    0.118888
    24  H    0.128627
    25  C   -0.521814
    26  H    0.126284
    27  H    0.119839
    28  H    0.125416
    29  C   -0.520579
    30  H    0.128867
    31  H    0.121254
    32  H    0.131082
    33  Si   0.551541
    34  C   -0.065855
    35  C    0.098195
    36  C   -0.162597
    37  H    0.066638
    38  C    0.096716
    39  C   -0.082266
    40  H    0.056237
    41  C   -0.065028
    42  H    0.059243
    43  C   -0.061955
    44  H    0.059476
    45  C   -0.082033
    46  H    0.057057
    47  C    0.109634
    48  C   -0.169328
    49  H    0.062715
    50  C    0.117435
    51  C    0.408313
    52  C   -0.624977
    53  C   -0.515607
    54  H    0.128582
    55  H    0.118888
    56  H    0.128627
    57  C   -0.521814
    58  H    0.126284
    59  H    0.119839
    60  H    0.125416
    61  C   -0.520579
    62  H    0.128867
    63  H    0.121254
    64  H    0.131082
 Sum of Mulliken atomic charges =   0.00000

 Dipole moment (field-independent basis, Debye):
    X=              0.0000    Y=              0.0000    Z=              0.0000  Tot=              0.0000
 Quadrupole moment (field-independent basis, Debye-Ang):
   XX=           -190.5471   YY=           -188.2121   ZZ=           -199.4943
   XY=             -2.5355   XZ=             15.5267   YZ=             11.8907

 Normal termination of Gaussian 09 at Fri Feb  1 23:06:25 2013.
