 Gaussian 09, Revision A.02,
 Gaussian 09:  EM64L-G09RevA.02 11-Jun-2009

 ----------------------------------------------------------------------
 #p guess=read geom=checkpoint scf=verytight b3lyp/6-31g(d,p) td(single
 ts,nstates=50)
 ----------------------------------------------------------------------

 Autjob.
 -------
 Redundant internal coordinates taken from checkpoint file:
 tesp_631gdp_raman_sp_tddft.chk
 Charge =  0 Multiplicity = 1

                         Standard orientation:
 ---------------------------------------------------------------------
 Center     Atomic      Atomic             Coordinates (Angstroms)
 Number     Number       Type             X           Y           Z
 ---------------------------------------------------------------------
      1         14           0       -5.919190   -0.106310    0.107170
      2          6           0       -1.432420   -0.021490    0.016150
      3          6           0       -0.744090    1.225760    0.019330
      4          6           0       -1.439820    2.453290    0.037940
      5          1           0       -2.524660    2.432360    0.049450
      6          6           0       -0.780400    3.677350    0.041780
      7          6           0       -1.484880    4.926460    0.060460
      8          1           0       -2.571290    4.906890    0.071630
      9          6           0       -0.807869    6.113200    0.064170
     10          1           0       -1.352679    7.052540    0.078450
     11          6           0        0.623621    6.134720    0.049430
     12          1           0        1.140151    7.090000    0.052860
     13          6           0        1.335770    4.968890    0.031300
     14          1           0        2.422300    4.982100    0.020140
     15          6           0        0.668970    3.699140    0.026540
     16          6           0        1.364940    2.495690    0.007850
     17          1           0        2.449850    2.507810   -0.003330
     18          6           0        0.706830    1.247540    0.003230
     19          6           0       -2.852300   -0.043470    0.035560
     20          6           0       -4.076450   -0.064980    0.055410
     21          6           0       -6.542810   -1.188179   -1.323930
     22          1           0       -7.636890   -1.253829   -1.248840
     23          6           0       -6.142610   -0.707879   -2.729490
     24          1           0       -5.054310   -0.663140   -2.838950
     25          1           0       -6.533260    0.294011   -2.938800
     26          1           0       -6.526420   -1.376419   -3.508120
     27          6           0       -6.402140   -0.881139    1.777000
     28          1           0       -5.834760   -1.816860    1.868860
     29          6           0       -7.898180   -1.162909    2.005490
     30          1           0       -8.067850   -1.646719    2.973940
     31          1           0       -8.309500   -1.825229    1.236250
     32          1           0       -8.491780   -0.243339    1.995970
     33          6           0       -6.515360    1.690821   -0.084660
     34          1           0       -5.963210    2.124690   -0.928600
     35          6           0       -8.025510    1.895411   -0.301810
     36          1           0       -8.382130    1.364751   -1.191130
     37          1           0       -8.267870    2.955311   -0.438240
     38          1           0       -8.613620    1.536471    0.548660
     39         14           0        5.919190    0.106290   -0.107120
     40          6           0        1.432420    0.021600   -0.016260
     41          6           0        0.744090   -1.225650   -0.019430
     42          6           0        1.439820   -2.453190   -0.038020
     43          1           0        2.524650   -2.432260   -0.049530
     44          6           0        0.780400   -3.677240   -0.041840
     45          6           0        1.484890   -4.926350   -0.060500
     46          1           0        2.571300   -4.906780   -0.071670
     47          6           0        0.807880   -6.113100   -0.064190
     48          1           0        1.352690   -7.052430   -0.078460
     49          6           0       -0.623610   -6.134620   -0.049450
     50          1           0       -1.140140   -7.089900   -0.052870
     51          6           0       -1.335770   -4.968780   -0.031340
     52          1           0       -2.422290   -4.982000   -0.020180
     53          6           0       -0.668970   -3.699030   -0.026600
     54          6           0       -1.364940   -2.495590   -0.007930
     55          1           0       -2.449850   -2.507710    0.003250
     56          6           0       -0.706830   -1.247440   -0.003340
     57          6           0        2.852290    0.043570   -0.035620
     58          6           0        4.076450    0.065060   -0.055410
     59          6           0        6.542830    1.187980    1.324100
     60          1           0        7.636920    1.253600    1.249040
     61          6           0        6.142610    0.707510    2.729600
     62          1           0        5.054310    0.662810    2.839050
     63          1           0        6.533210   -0.294430    2.938780
     64          1           0        6.526450    1.375930    3.508320
     65          6           0        6.402230    0.881260   -1.776860
     66          1           0        5.835100    1.817150   -1.868540
     67          6           0        7.898330    1.162660   -2.005430
     68          1           0        8.068060    1.646610   -2.973790
     69          1           0        8.309900    1.824720   -1.236090
     70          1           0        8.491670    0.242920   -1.996120
     71          6           0        6.515240   -1.690890    0.084560
     72          1           0        5.962950   -2.124820    0.928380
     73          6           0        8.025340   -1.895590    0.301920
     74          1           0        8.381860   -1.365080    1.191370
     75          1           0        8.267630   -2.955520    0.438220
     76          1           0        8.613610   -1.536550   -0.548410
     77          1           0       -6.174730   -2.209699   -1.160040
     78          1           0       -6.018830   -0.230180    2.573680
     79          1           0       -6.185380    2.252101    0.799600
     80          1           0        6.185360   -2.252050   -0.799800
     81          1           0        6.018680    0.230530   -2.573620
     82          1           0        6.174790    2.209530    1.160340
 ---------------------------------------------------------------------

 SCF Done:  E(RB3LYP) =  -2052.40920565     A.U. after    3 cycles

 Excitation energies and oscillator strengths:

 Excited State   1:      Singlet-A      1.6917 eV  732.89 nm  f=0.1654  <S**2>=0.000
     149 ->150         0.71169
     149 <-150        -0.11250
 This state for optimization and/or second-order correction.
 Total Energy, E(TD-HF/TD-KS) =  -2052.34703638
 Copying the excited state density for this state as the 1-particle RhoCI density.

 Excited State   2:      Singlet-A      2.6722 eV  463.98 nm  f=0.0000  <S**2>=0.000
     148 ->150         0.68740
     149 ->151        -0.15476

 Excited State   3:      Singlet-A      3.1142 eV  398.12 nm  f=0.0595  <S**2>=0.000
     147 ->150         0.63784
     149 ->152         0.29924

 Excited State   4:      Singlet-A      3.1455 eV  394.17 nm  f=0.0441  <S**2>=0.000
     146 ->150         0.56288
     149 ->153        -0.42264

 Excited State   5:      Singlet-A      3.1775 eV  390.19 nm  f=0.0000  <S**2>=0.000
     148 ->150         0.15319
     149 ->151         0.68530

 Excited State   6:      Singlet-A      3.5756 eV  346.75 nm  f=0.2956  <S**2>=0.000
     147 ->150        -0.29643
     149 ->152         0.63545

 Excited State   7:      Singlet-A      3.5837 eV  345.97 nm  f=0.0008  <S**2>=0.000
     138 ->150        -0.12269
     144 ->150         0.69099

 Excited State   8:      Singlet-A      3.6443 eV  340.21 nm  f=0.0000  <S**2>=0.000
     137 ->150         0.12970
     143 ->150         0.68988

 Excited State   9:      Singlet-A      3.7460 eV  330.98 nm  f=0.0000  <S**2>=0.000
     145 ->150         0.68118
     149 ->154        -0.15282

 Excited State  10:      Singlet-A      4.1278 eV  300.36 nm  f=2.2326  <S**2>=0.000
     146 ->150         0.42811
     149 ->153         0.56410

 Excited State  11:      Singlet-A      4.2504 eV  291.70 nm  f=0.0249  <S**2>=0.000
     140 ->150         0.17520
     142 ->150         0.66936
     149 ->157        -0.10953

 Excited State  12:      Singlet-A      4.3168 eV  287.21 nm  f=0.0000  <S**2>=0.000
     141 ->150         0.48341
     145 ->150        -0.12848
     146 ->151        -0.12909
     148 ->153         0.17670
     149 ->154        -0.43034

 Excited State  13:      Singlet-A      4.3699 eV  283.72 nm  f=0.0000  <S**2>=0.000
     141 ->150        -0.12381
     149 ->155         0.68400

 Excited State  14:      Singlet-A      4.4797 eV  276.77 nm  f=0.0006  <S**2>=0.000
     149 ->156         0.69470

 Excited State  15:      Singlet-A      4.5006 eV  275.48 nm  f=0.0000  <S**2>=0.000
     139 ->150         0.67065
     148 ->152         0.12465
     149 ->158         0.15604

 Excited State  16:      Singlet-A      4.5368 eV  273.28 nm  f=0.0809  <S**2>=0.000
     146 ->153         0.11009
     148 ->151         0.66860
     149 ->157         0.14619

 Excited State  17:      Singlet-A      4.5561 eV  272.13 nm  f=0.0000  <S**2>=0.000
     141 ->150         0.45005
     146 ->151         0.15460
     149 ->154         0.48247
     149 ->155         0.11351

 Excited State  18:      Singlet-A      4.5735 eV  271.09 nm  f=0.0025  <S**2>=0.000
     138 ->150         0.10625
     140 ->150         0.62639
     142 ->150        -0.19382
     149 ->157        -0.21740

 Excited State  19:      Singlet-A      4.5859 eV  270.36 nm  f=0.0010  <S**2>=0.000
     138 ->150         0.68063
     144 ->150         0.12363

 Excited State  20:      Singlet-A      4.6049 eV  269.25 nm  f=0.0000  <S**2>=0.000
     137 ->150         0.68980
     143 ->150        -0.13550

 Excited State  21:      Singlet-A      4.7028 eV  263.64 nm  f=0.0000  <S**2>=0.000
     136 ->150        -0.22859
     141 ->150        -0.16391
     146 ->151        -0.38101
     148 ->153         0.47513
     149 ->154         0.18632

 Excited State  22:      Singlet-A      4.7798 eV  259.39 nm  f=0.0000  <S**2>=0.000
     148 ->152         0.66566
     149 ->158        -0.19202

 Excited State  23:      Singlet-A      4.8135 eV  257.57 nm  f=0.0289  <S**2>=0.000
     140 ->150         0.23182
     148 ->151        -0.16117
     149 ->157         0.63083

 Excited State  24:      Singlet-A      4.8472 eV  255.79 nm  f=0.0000  <S**2>=0.000
     136 ->150         0.63315
     146 ->151        -0.27776

 Excited State  25:      Singlet-A      4.8820 eV  253.96 nm  f=0.0000  <S**2>=0.000
     147 ->151         0.67406
     149 ->158         0.15996

 Excited State  26:      Singlet-A      5.0848 eV  243.83 nm  f=0.0043  <S**2>=0.000
     145 ->151        -0.17892
     146 ->152         0.45052
     147 ->153         0.46152
     148 ->154         0.17395

 Excited State  27:      Singlet-A      5.1207 eV  242.12 nm  f=0.0000  <S**2>=0.000
     139 ->150        -0.18635
     147 ->151        -0.17453
     148 ->152         0.14391
     149 ->158         0.63027

 Excited State  28:      Singlet-A      5.2090 eV  238.02 nm  f=0.3363  <S**2>=0.000
     146 ->153        -0.14705
     147 ->152         0.67407

 Excited State  29:      Singlet-A      5.2755 eV  235.02 nm  f=0.0000  <S**2>=0.000
     145 ->152        -0.10170
     146 ->151        -0.33606
     148 ->153        -0.36176
     149 ->159         0.47114

 Excited State  30:      Singlet-A      5.3385 eV  232.25 nm  f=0.0008  <S**2>=0.000
     131 ->150        -0.25092
     134 ->150         0.64535

 Excited State  31:      Singlet-A      5.4043 eV  229.42 nm  f=0.2255  <S**2>=0.000
     135 ->150         0.48183
     146 ->152        -0.40839
     147 ->153         0.30470

 Excited State  32:      Singlet-A      5.4619 eV  227.00 nm  f=0.0282  <S**2>=0.000
     135 ->150         0.23430
     145 ->151         0.61360
     146 ->152         0.23388

 Excited State  33:      Singlet-A      5.4879 eV  225.92 nm  f=0.0000  <S**2>=0.000
     144 ->151         0.69870

 Excited State  34:      Singlet-A      5.4999 eV  225.43 nm  f=0.0000  <S**2>=0.000
     132 ->150         0.67496
     143 ->152        -0.14795

 Excited State  35:      Singlet-A      5.5451 eV  223.59 nm  f=0.0001  <S**2>=0.000
     143 ->151         0.69342

 Excited State  36:      Singlet-A      5.5711 eV  222.55 nm  f=0.0006  <S**2>=0.000
     130 ->150         0.48924
     143 ->154         0.10455
     144 ->152        -0.45980

 Excited State  37:      Singlet-A      5.5880 eV  221.88 nm  f=0.0008  <S**2>=0.000
     135 ->150         0.33211
     145 ->151        -0.11447
     147 ->153        -0.38710
     148 ->154         0.44547

 Excited State  38:      Singlet-A      5.6096 eV  221.02 nm  f=0.0008  <S**2>=0.000
     130 ->150         0.49006
     144 ->152         0.47091

 Excited State  39:      Singlet-A      5.6468 eV  219.56 nm  f=0.0000  <S**2>=0.000
     132 ->150         0.16169
     137 ->152         0.12692
     143 ->152         0.63039
     144 ->154        -0.14795

 Excited State  40:      Singlet-A      5.6695 eV  218.69 nm  f=0.0000  <S**2>=0.000
     145 ->152         0.50193
     146 ->151         0.20012
     147 ->154        -0.12884
     148 ->153         0.10513
     149 ->159         0.38605

 Excited State  41:      Singlet-A      5.7570 eV  215.36 nm  f=0.3927  <S**2>=0.000
     146 ->153         0.66233
     147 ->152         0.12553
     148 ->151        -0.11593

 Excited State  42:      Singlet-A      5.7883 eV  214.20 nm  f=0.0000  <S**2>=0.000
     133 ->150         0.70069

 Excited State  43:      Singlet-A      5.7895 eV  214.15 nm  f=0.0049  <S**2>=0.000
     131 ->150         0.64580
     134 ->150         0.24477

 Excited State  44:      Singlet-A      5.8324 eV  212.58 nm  f=0.0086  <S**2>=0.000
     148 ->155        -0.39584
     149 ->160         0.55970

 Excited State  45:      Singlet-A      5.8453 eV  212.11 nm  f=0.0163  <S**2>=0.000
     148 ->154        -0.14160
     148 ->155         0.53868
     149 ->160         0.41143

 Excited State  46:      Singlet-A      5.8528 eV  211.84 nm  f=0.0000  <S**2>=0.000
     145 ->152        -0.14672
     149 ->159         0.12105
     149 ->161         0.66679

 Excited State  47:      Singlet-A      5.9051 eV  209.96 nm  f=0.3089  <S**2>=0.000
     135 ->150        -0.22128
     141 ->151        -0.25154
     145 ->151         0.23947
     146 ->152        -0.20963
     147 ->153         0.14040
     148 ->154         0.42006
     148 ->155         0.20900
     149 ->165        -0.15760

 Excited State  48:      Singlet-A      5.9318 eV  209.02 nm  f=0.0000  <S**2>=0.000
     136 ->156         0.11547
     145 ->156         0.24491
     147 ->154        -0.13625
     147 ->155         0.60085

 Excited State  49:      Singlet-A      5.9487 eV  208.42 nm  f=0.0001  <S**2>=0.000
     144 ->153         0.69688

 Excited State  50:      Singlet-A      5.9487 eV  208.42 nm  f=0.0000  <S**2>=0.000
     140 ->151         0.12186
     142 ->151         0.35655
     148 ->156         0.51525
     148 ->157        -0.26485

 The electronic state is 1-A.
 Alpha  occ. eigenvalues --  -66.12504 -66.12504 -10.21832 -10.21831 -10.20740
 Alpha  occ. eigenvalues --  -10.20738 -10.20703 -10.20702 -10.19971 -10.19971
 Alpha  occ. eigenvalues --  -10.19934 -10.19934 -10.19306 -10.19306 -10.19268
 Alpha  occ. eigenvalues --  -10.19268 -10.19157 -10.19157 -10.19152 -10.19152
 Alpha  occ. eigenvalues --  -10.18928 -10.18928 -10.18926 -10.18926 -10.18833
 Alpha  occ. eigenvalues --  -10.18832 -10.17906 -10.17906 -10.17860 -10.17860
 Alpha  occ. eigenvalues --  -10.17430 -10.17430 -10.16893 -10.16893 -10.16832
 Alpha  occ. eigenvalues --  -10.16832 -10.16794 -10.16794 -10.16471 -10.16471
 Alpha  occ. eigenvalues --   -5.26894  -5.26894  -3.62890  -3.62890  -3.62714
 Alpha  occ. eigenvalues --   -3.62714  -3.62706  -3.62706  -0.89194  -0.87159
 Alpha  occ. eigenvalues --   -0.85211  -0.81822  -0.81724  -0.78314  -0.77556
 Alpha  occ. eigenvalues --   -0.76493  -0.76122  -0.76005  -0.74323  -0.74322
 Alpha  occ. eigenvalues --   -0.74158  -0.74115  -0.73934  -0.73782  -0.72304
 Alpha  occ. eigenvalues --   -0.71971  -0.68560  -0.67019  -0.63481  -0.62880
 Alpha  occ. eigenvalues --   -0.62220  -0.61765  -0.61680  -0.60781  -0.60777
 Alpha  occ. eigenvalues --   -0.60409  -0.60408  -0.59335  -0.59244  -0.57705
 Alpha  occ. eigenvalues --   -0.52530  -0.52259  -0.52194  -0.51827  -0.50319
 Alpha  occ. eigenvalues --   -0.49113  -0.48327  -0.47851  -0.46108  -0.45196
 Alpha  occ. eigenvalues --   -0.44764  -0.44608  -0.44608  -0.44453  -0.44352
 Alpha  occ. eigenvalues --   -0.43266  -0.43175  -0.43072  -0.43030  -0.42146
 Alpha  occ. eigenvalues --   -0.41890  -0.41552  -0.41430  -0.41358  -0.41311
 Alpha  occ. eigenvalues --   -0.40914  -0.40896  -0.40473  -0.40462  -0.40143
 Alpha  occ. eigenvalues --   -0.40019  -0.38796  -0.37591  -0.36713  -0.36689
 Alpha  occ. eigenvalues --   -0.36605  -0.36478  -0.36362  -0.36317  -0.36156
 Alpha  occ. eigenvalues --   -0.35990  -0.35535  -0.35534  -0.35507  -0.34438
 Alpha  occ. eigenvalues --   -0.34346  -0.34126  -0.33835  -0.33825  -0.33594
 Alpha  occ. eigenvalues --   -0.33181  -0.33084  -0.32960  -0.32445  -0.32264
 Alpha  occ. eigenvalues --   -0.29684  -0.28874  -0.28776  -0.28743  -0.28614
 Alpha  occ. eigenvalues --   -0.27841  -0.27446  -0.25925  -0.25770  -0.25663
 Alpha  occ. eigenvalues --   -0.23848  -0.23406  -0.21739  -0.16944
 Alpha virt. eigenvalues --   -0.09956  -0.03599  -0.02307  -0.01791   0.01247
 Alpha virt. eigenvalues --    0.01870   0.02254   0.02682   0.03737   0.05091
 Alpha virt. eigenvalues --    0.05995   0.06086   0.08275   0.08716   0.09017

 Mulliken atomic charges:
              1
     1  Si   0.610060
     2  C   -0.071076
     3  C    0.118656
     4  C   -0.222963
     5  H    0.105756
     6  C    0.118826
     7  C   -0.118157
     8  H    0.087675
     9  C   -0.097622
    10  H    0.087561
    11  C   -0.097510
    12  H    0.087511
    13  C   -0.117981
    14  H    0.086885
    15  C    0.119185
    16  C   -0.223317
    17  H    0.105397
    18  C    0.118672
    19  C    0.393106
    20  C   -0.599305
    21  C   -0.380280
    22  H    0.105647
    23  C   -0.323614
    24  H    0.120842
    25  H    0.105317
    26  H    0.096639
    27  C   -0.376009
    28  H    0.113997
    29  C   -0.328414
    30  H    0.102106
    31  H    0.106170
    32  H    0.108410
    33  C   -0.380548
    34  H    0.114599
    35  C   -0.330067
    36  H    0.108296
    37  H    0.101383
    38  H    0.108572
    39  Si   0.610055
    40  C   -0.071067
    41  C    0.118643
    42  C   -0.222959
    43  H    0.105755
    44  C    0.118830
    45  C   -0.118159
    46  H    0.087675
    47  C   -0.097620
    48  H    0.087561
    49  C   -0.097510
    50  H    0.087511
    51  C   -0.117984
    52  H    0.086885
    53  C    0.119190
    54  C   -0.223315
    55  H    0.105397
    56  C    0.118670
    57  C    0.393087
    58  C   -0.599287
    59  C   -0.380278
    60  H    0.105646
    61  C   -0.323616
    62  H    0.120842
    63  H    0.105317
    64  H    0.096638
    65  C   -0.376006
    66  H    0.113994
    67  C   -0.328413
    68  H    0.102108
    69  H    0.106166
    70  H    0.108411
    71  C   -0.380549
    72  H    0.114599
    73  C   -0.330068
    74  H    0.108298
    75  H    0.101383
    76  H    0.108569
    77  H    0.110273
    78  H    0.114709
    79  H    0.110613
    80  H    0.110615
    81  H    0.114710
    82  H    0.110276
 Sum of Mulliken atomic charges =   0.00000

 Dipole moment (field-independent basis, Debye):
    X=              0.0000    Y=             -0.0001    Z=              0.0000  Tot=              0.0001
 Quadrupole moment (field-independent basis, Debye-Ang):
   XX=           -222.5524   YY=           -228.8180   ZZ=           -258.7941
   XY=             -0.0069   XZ=             -1.4141   YZ=              0.3624

 Normal termination of Gaussian 09 at Sun Jan  1 19:09:22 2012.
