 Gaussian 09, Revision A.02,
 Gaussian 09:  EM64L-G09RevA.02 11-Jun-2009

 ----------------------------------------------------------------------
 #p guess=read geom=checkpoint scf=verytight b3lyp/6-31g(d,p) td(single
 ts,nstates=50)
 ----------------------------------------------------------------------

 Autjob.
 -------
 Redundant internal coordinates taken from checkpoint file:
 tipsp_631gdp_raman_sp_tddft.chk
 Charge =  0 Multiplicity = 1

                         Standard orientation:
 ---------------------------------------------------------------------
 Center     Atomic      Atomic             Coordinates (Angstroms)
 Number     Number       Type             X           Y           Z
 ---------------------------------------------------------------------
      1         14           0        5.923375    0.029025   -0.098491
      2          6           0        1.432541   -0.001659   -0.016741
      3          6           0        0.724067   -1.237573   -0.021601
      4          6           0        1.399682   -2.476223   -0.042544
      5          1           0        2.484667   -2.473168   -0.056479
      6          6           0        0.720696   -3.689543   -0.046467
      7          6           0        1.405031   -4.949746   -0.066801
      8          1           0        2.491585   -4.947701   -0.079230
      9          6           0        0.708928   -6.125383   -0.070018
     10          1           0        1.238509   -7.073359   -0.085346
     11          6           0       -0.722679   -6.123894   -0.053191
     12          1           0       -1.254495   -7.070739   -0.056115
     13          6           0       -1.416016   -4.946793   -0.033604
     14          1           0       -2.502564   -4.942477   -0.020729
     15          6           0       -0.728755   -3.688042   -0.029306
     16          6           0       -1.405167   -2.473424   -0.009459
     17          1           0       -2.490080   -2.468601    0.002343
     18          6           0       -0.727056   -1.236006   -0.004528
     19          6           0        2.852724   -0.002340   -0.035848
     20          6           0        4.077524    0.000744   -0.052990
     21          6           0        6.452535    0.451559   -1.892159
     22          1           0        7.553128    0.471106   -1.885218
     23          6           0        6.007237   -0.625287   -2.900433
     24          1           0        4.915636   -0.719592   -2.921058
     25          1           0        6.420596   -1.612242   -2.668438
     26          1           0        6.332532   -0.365754   -3.915740
     27          6           0        5.962970    1.841317   -2.341491
     28          1           0        6.287047    2.054192   -3.367931
     29          1           0        6.348007    2.644839   -1.705329
     30          1           0        4.868660    1.899184   -2.326100
     31          6           0        6.479011    1.435987    1.082150
     32          1           0        6.040575    2.333138    0.618916
     33          6           0        8.005449    1.642857    1.123483
     34          1           0        8.260311    2.542402    1.697864
     35          1           0        8.440616    1.759477    0.125069
     36          1           0        8.511252    0.800400    1.607847
     37          6           0        5.896877    1.339956    2.504767
     38          1           0        6.326816    0.501100    3.062227
     39          1           0        4.810801    1.207853    2.492448
     40          1           0        6.116984    2.251450    3.074937
     41          6           0        6.514048   -1.743454    0.337335
     42          1           0        5.976412   -2.367139   -0.393133
     43          6           0        8.020987   -1.973979    0.111302
     44          1           0        8.338583   -1.703442   -0.901088
     45          1           0        8.277437   -3.030299    0.262047
     46          1           0        8.629723   -1.394071    0.813615
     47          6           0        6.088704   -2.225450    1.736758
     48          1           0        5.020086   -2.071463    1.917225
     49          1           0        6.637559   -1.701044    2.526230
     50          1           0        6.296992   -3.295987    1.858558
     51         14           0       -5.923383   -0.029050    0.098484
     52          6           0       -1.432546    0.001693    0.016820
     53          6           0       -0.724073    1.237605    0.021668
     54          6           0       -1.399688    2.476258    0.042585
     55          1           0       -2.484674    2.473203    0.056508
     56          6           0       -0.720702    3.689577    0.046499
     57          6           0       -1.405037    4.949780    0.066812
     58          1           0       -2.491591    4.947739    0.079232
     59          6           0       -0.708934    6.125418    0.070016
     60          1           0       -1.238518    7.073392    0.085327
     61          6           0        0.722671    6.123927    0.053199
     62          1           0        1.254490    7.070771    0.056111
     63          6           0        1.416010    4.946827    0.033634
     64          1           0        2.502557    4.942512    0.020766
     65          6           0        0.728749    3.688076    0.029348
     66          6           0        1.405160    2.473459    0.009519
     67          1           0        2.490073    2.468636   -0.002284
     68          6           0        0.727051    1.236038    0.004608
     69          6           0       -2.852731    0.002371    0.035892
     70          6           0       -4.077532   -0.000718    0.052978
     71          6           0       -6.452517   -0.451445    1.892194
     72          1           0       -7.553107   -0.471117    1.885232
     73          6           0       -6.007352    0.625556    2.900362
     74          1           0       -4.915760    0.719972    2.920993
     75          1           0       -6.420804    1.612445    2.668255
     76          1           0       -6.332635    0.366098    3.915691
     77          6           0       -5.962825   -1.841099    2.341704
     78          1           0       -6.286919   -2.053887    3.368157
     79          1           0       -6.347757   -2.644732    1.705619
     80          1           0       -4.868509   -1.898854    2.326359
     81          6           0       -6.478998   -1.436114   -1.082043
     82          1           0       -6.040758   -2.333264   -0.618620
     83          6           0       -8.005459   -1.642776   -1.123591
     84          1           0       -8.260356   -2.542378   -1.697868
     85          1           0       -8.440809   -1.759172   -0.125231
     86          1           0       -8.511062   -0.800325   -1.608177
     87          6           0       -5.896627   -1.340337   -2.504579
     88          1           0       -6.326306   -0.501441   -3.062183
     89          1           0       -4.810527   -1.208443   -2.492097
     90          1           0       -6.116827   -2.251840   -3.074696
     91          6           0       -6.514096    1.743360   -0.337544
     92          1           0       -5.976378    2.367160    0.392765
     93          6           0       -8.021013    1.973962   -0.111445
     94          1           0       -8.338545    1.703647    0.901023
     95          1           0       -8.277441    3.030258   -0.262392
     96          1           0       -8.629818    1.393924   -0.813591
     97          6           0       -6.088862    2.225088   -1.737099
     98          1           0       -5.020259    2.071064   -1.917616
     99          1           0       -6.637781    1.700529   -2.526426
    100          1           0       -6.297159    3.295602   -1.859088
 ---------------------------------------------------------------------

 SCF Done:  E(RB3LYP) =  -2288.28882221     A.U. after    1 cycles

 Excitation energies and oscillator strengths:

 Excited State   1:      Singlet-A      1.6850 eV  735.79 nm  f=0.1761  <S**2>=0.000
     173 ->174         0.71174
     173 <-174        -0.11164
 This state for optimization and/or second-order correction.
 Total Energy, E(TD-HF/TD-KS) =  -2288.22689789
 Copying the excited state density for this state as the 1-particle RhoCI density.

 Excited State   2:      Singlet-A      2.6664 eV  464.98 nm  f=0.0000  <S**2>=0.000
     172 ->174         0.68815
     173 ->175         0.15147

 Excited State   3:      Singlet-A      3.0943 eV  400.69 nm  f=0.0722  <S**2>=0.000
     171 ->174         0.64762
     173 ->176        -0.27727

 Excited State   4:      Singlet-A      3.1438 eV  394.37 nm  f=0.0449  <S**2>=0.000
     170 ->174         0.56453
     173 ->177         0.42043

 Excited State   5:      Singlet-A      3.1804 eV  389.84 nm  f=0.0000  <S**2>=0.000
     172 ->174        -0.14993
     173 ->175         0.68601

 Excited State   6:      Singlet-A      3.5018 eV  354.06 nm  f=0.0007  <S**2>=0.000
     164 ->174         0.17687
     169 ->174         0.68056

 Excited State   7:      Singlet-A      3.5478 eV  349.47 nm  f=0.0000  <S**2>=0.000
     163 ->174        -0.17091
     167 ->174         0.30320
     168 ->174         0.61136

 Excited State   8:      Singlet-A      3.5559 eV  348.67 nm  f=0.2924  <S**2>=0.000
     171 ->174         0.27489
     173 ->176         0.64282

 Excited State   9:      Singlet-A      3.6616 eV  338.60 nm  f=0.0000  <S**2>=0.000
     167 ->174         0.61826
     168 ->174        -0.30701
     173 ->178        -0.11316

 Excited State  10:      Singlet-A      4.0730 eV  304.41 nm  f=0.0045  <S**2>=0.000
     162 ->174         0.10005
     166 ->174         0.69248

 Excited State  11:      Singlet-A      4.1227 eV  300.74 nm  f=2.1403  <S**2>=0.000
     170 ->174        -0.42529
     173 ->177         0.56488

 Excited State  12:      Singlet-A      4.1580 eV  298.18 nm  f=0.0000  <S**2>=0.000
     165 ->174         0.60689
     172 ->177         0.14918
     173 ->178        -0.29427

 Excited State  13:      Singlet-A      4.2434 eV  292.18 nm  f=0.0029  <S**2>=0.000
     164 ->174         0.67860
     169 ->174        -0.18201

 Excited State  14:      Singlet-A      4.2770 eV  289.89 nm  f=0.0000  <S**2>=0.000
     163 ->174         0.67563
     168 ->174         0.15006

 Excited State  15:      Singlet-A      4.3805 eV  283.04 nm  f=0.0000  <S**2>=0.000
     173 ->178         0.11476
     173 ->179         0.68461

 Excited State  16:      Singlet-A      4.4206 eV  280.47 nm  f=0.0247  <S**2>=0.000
     162 ->174         0.66118
     166 ->174        -0.10872
     172 ->175        -0.11506
     173 ->181        -0.17079

 Excited State  17:      Singlet-A      4.4916 eV  276.03 nm  f=0.0000  <S**2>=0.000
     160 ->174         0.13405
     165 ->174         0.32472
     170 ->175         0.19913
     173 ->178         0.55293
     173 ->179        -0.12049

 Excited State  18:      Singlet-A      4.4922 eV  276.00 nm  f=0.0006  <S**2>=0.000
     173 ->180         0.69647

 Excited State  19:      Singlet-A      4.4949 eV  275.84 nm  f=0.0000  <S**2>=0.000
     161 ->174         0.67081
     172 ->176        -0.12576
     173 ->182         0.15452

 Excited State  20:      Singlet-A      4.5385 eV  273.18 nm  f=0.0798  <S**2>=0.000
     170 ->177         0.10976
     172 ->175         0.66352
     173 ->181        -0.19314

 Excited State  21:      Singlet-A      4.6766 eV  265.12 nm  f=0.0000  <S**2>=0.000
     160 ->174        -0.34469
     170 ->175        -0.28086
     172 ->177         0.47186
     173 ->178         0.24189

 Excited State  22:      Singlet-A      4.7768 eV  259.56 nm  f=0.0000  <S**2>=0.000
     172 ->176         0.66538
     173 ->182         0.19120

 Excited State  23:      Singlet-A      4.8043 eV  258.07 nm  f=0.0000  <S**2>=0.000
     160 ->174         0.56121
     170 ->175        -0.37246
     172 ->177         0.16233

 Excited State  24:      Singlet-A      4.8077 eV  257.89 nm  f=0.0300  <S**2>=0.000
     162 ->174         0.19806
     172 ->175         0.16146
     173 ->181         0.64614

 Excited State  25:      Singlet-A      4.8679 eV  254.70 nm  f=0.0000  <S**2>=0.000
     171 ->175         0.67667
     172 ->176         0.10124
     173 ->182        -0.14940

 Excited State  26:      Singlet-A      5.0786 eV  244.13 nm  f=0.0040  <S**2>=0.000
     165 ->175        -0.10744
     167 ->175        -0.15116
     170 ->176         0.44388
     171 ->177         0.46356
     172 ->178        -0.17273

 Excited State  27:      Singlet-A      5.1158 eV  242.36 nm  f=0.0000  <S**2>=0.000
     161 ->174        -0.18552
     171 ->175         0.16354
     172 ->176        -0.14363
     173 ->182         0.63355

 Excited State  28:      Singlet-A      5.1852 eV  239.11 nm  f=0.3484  <S**2>=0.000
     170 ->177        -0.13719
     171 ->176         0.67698

 Excited State  29:      Singlet-A      5.2632 eV  235.57 nm  f=0.0000  <S**2>=0.000
     170 ->175        -0.33503
     172 ->177        -0.36219
     173 ->183         0.46606

 Excited State  30:      Singlet-A      5.3043 eV  233.74 nm  f=0.0016  <S**2>=0.000
     151 ->174         0.11967
     156 ->174        -0.46236
     159 ->174         0.50340

 Excited State  31:      Singlet-A      5.3796 eV  230.47 nm  f=0.0000  <S**2>=0.000
     164 ->175         0.10923
     169 ->175         0.69032

 Excited State  32:      Singlet-A      5.3967 eV  229.74 nm  f=0.1877  <S**2>=0.000
     157 ->174        -0.43846
     167 ->175         0.10381
     170 ->176         0.44065
     171 ->177        -0.29529

 Excited State  33:      Singlet-A      5.4067 eV  229.32 nm  f=0.0606  <S**2>=0.000
     157 ->174        -0.25850
     167 ->175        -0.42098
     168 ->175         0.46175
     170 ->176        -0.12392

 Excited State  34:      Singlet-A      5.4162 eV  228.91 nm  f=0.0031  <S**2>=0.000
     159 ->174         0.14560
     167 ->175         0.47443
     168 ->175         0.47456

 Excited State  35:      Singlet-A      5.4471 eV  227.61 nm  f=0.0000  <S**2>=0.000
     158 ->174         0.69363

 Excited State  36:      Singlet-A      5.4895 eV  225.86 nm  f=0.0000  <S**2>=0.000
     149 ->174         0.12477
     152 ->174         0.10794
     153 ->174         0.43988
     155 ->174        -0.43130
     167 ->176        -0.10547
     168 ->176        -0.21275

 Excited State  37:      Singlet-A      5.4975 eV  225.53 nm  f=0.0013  <S**2>=0.000
     151 ->174        -0.13586
     156 ->174         0.47514
     159 ->174         0.46546
     168 ->175        -0.13924

 Excited State  38:      Singlet-A      5.5159 eV  224.78 nm  f=0.0020  <S**2>=0.000
     146 ->174        -0.15364
     164 ->176         0.18064
     168 ->178        -0.10562
     169 ->176         0.63027

 Excited State  39:      Singlet-A      5.5697 eV  222.61 nm  f=0.0000  <S**2>=0.000
     153 ->174         0.16226
     155 ->174        -0.19848
     163 ->176        -0.16128
     167 ->176         0.24863
     168 ->176         0.54849
     169 ->178        -0.12061

 Excited State  40:      Singlet-A      5.5737 eV  222.45 nm  f=0.0008  <S**2>=0.000
     157 ->174        -0.36389
     170 ->176        -0.12117
     171 ->177         0.38602
     172 ->178         0.42114

 Excited State  41:      Singlet-A      5.5866 eV  221.93 nm  f=0.0001  <S**2>=0.000
     146 ->174         0.64409
     148 ->174        -0.11411
     154 ->174         0.18523
     169 ->176         0.15446

 Excited State  42:      Singlet-A      5.6237 eV  220.47 nm  f=0.0000  <S**2>=0.000
     167 ->176         0.48960
     168 ->176        -0.20930
     170 ->175         0.17502
     171 ->178         0.11279
     173 ->183         0.36799

 Excited State  43:      Singlet-A      5.7099 eV  217.14 nm  f=0.0034  <S**2>=0.000
     173 ->184         0.70025

 Excited State  44:      Singlet-A      5.7366 eV  216.13 nm  f=0.0000  <S**2>=0.000
     167 ->176         0.12387
     173 ->183        -0.13146
     173 ->185         0.67457

 Excited State  45:      Singlet-A      5.7510 eV  215.59 nm  f=0.3879  <S**2>=0.000
     170 ->177         0.66241
     171 ->176         0.11690
     172 ->175        -0.11537

 Excited State  46:      Singlet-A      5.8051 eV  213.58 nm  f=0.1121  <S**2>=0.000
     157 ->174         0.20344
     165 ->175         0.41235
     167 ->175        -0.19562
     168 ->175         0.10343
     170 ->176         0.21487
     172 ->178         0.39386

 Excited State  47:      Singlet-A      5.8201 eV  213.03 nm  f=0.0000  <S**2>=0.000
     166 ->175         0.66996
     172 ->181         0.17320

 Excited State  48:      Singlet-A      5.8454 eV  212.10 nm  f=0.0003  <S**2>=0.000
     164 ->177         0.11549
     169 ->177         0.61560
     172 ->179        -0.31527

 Excited State  49:      Singlet-A      5.8503 eV  211.93 nm  f=0.0024  <S**2>=0.000
     146 ->174        -0.13891
     151 ->174        -0.34358
     154 ->174         0.57003
     156 ->174        -0.13799

 Excited State  50:      Singlet-A      5.8522 eV  211.86 nm  f=0.0000  <S**2>=0.000
     152 ->174         0.14655
     153 ->174         0.46900
     155 ->174         0.50374

 The electronic state is 1-A.
 Alpha  occ. eigenvalues --  -66.12335 -66.12335 -10.21935 -10.21935 -10.20837
 Alpha  occ. eigenvalues --  -10.20835 -10.20800 -10.20799 -10.20053 -10.20052
 Alpha  occ. eigenvalues --  -10.20015 -10.20015 -10.19369 -10.19369 -10.19330
 Alpha  occ. eigenvalues --  -10.19330 -10.19217 -10.19217 -10.19215 -10.19215
 Alpha  occ. eigenvalues --  -10.19020 -10.19020 -10.19016 -10.19016 -10.18963
 Alpha  occ. eigenvalues --  -10.18963 -10.17708 -10.17708 -10.17689 -10.17689
 Alpha  occ. eigenvalues --  -10.17648 -10.17648 -10.17604 -10.17604 -10.17468
 Alpha  occ. eigenvalues --  -10.17468 -10.17317 -10.17317 -10.17262 -10.17262
 Alpha  occ. eigenvalues --  -10.17210 -10.17210 -10.17098 -10.17098 -10.16592
 Alpha  occ. eigenvalues --  -10.16592  -5.26716  -5.26716  -3.62725  -3.62725
 Alpha  occ. eigenvalues --   -3.62529  -3.62529  -3.62520  -3.62520  -0.89285
 Alpha  occ. eigenvalues --   -0.87238  -0.85288  -0.81899  -0.81831  -0.78603
 Alpha  occ. eigenvalues --   -0.78515  -0.78319  -0.77636  -0.76978  -0.76978
 Alpha  occ. eigenvalues --   -0.76884  -0.76884  -0.76511  -0.74181  -0.73862
 Alpha  occ. eigenvalues --   -0.72381  -0.72116  -0.68679  -0.68169  -0.68108
 Alpha  occ. eigenvalues --   -0.67770  -0.67768  -0.67480  -0.67480  -0.67077
 Alpha  occ. eigenvalues --   -0.62743  -0.62300  -0.61839  -0.60344  -0.59919
 Alpha  occ. eigenvalues --   -0.59377  -0.59328  -0.57741  -0.57189  -0.57189
 Alpha  occ. eigenvalues --   -0.56910  -0.56910  -0.52595  -0.52339  -0.52178
 Alpha  occ. eigenvalues --   -0.51902  -0.50427  -0.49363  -0.48719  -0.47925
 Alpha  occ. eigenvalues --   -0.46231  -0.45731  -0.45621  -0.45275  -0.44854
 Alpha  occ. eigenvalues --   -0.44610  -0.44608  -0.43671  -0.43669  -0.43392
 Alpha  occ. eigenvalues --   -0.43255  -0.42795  -0.42645  -0.42431  -0.42408
 Alpha  occ. eigenvalues --   -0.42104  -0.41951  -0.41584  -0.41431  -0.41285
 Alpha  occ. eigenvalues --   -0.41275  -0.40232  -0.40108  -0.39936  -0.39914
 Alpha  occ. eigenvalues --   -0.39508  -0.39466  -0.38874  -0.38807  -0.38803
 Alpha  occ. eigenvalues --   -0.38737  -0.38733  -0.37717  -0.37679  -0.37634
 Alpha  occ. eigenvalues --   -0.36871  -0.36871  -0.36647  -0.36192  -0.35577
 Alpha  occ. eigenvalues --   -0.34443  -0.34245  -0.34187  -0.33990  -0.33989
 Alpha  occ. eigenvalues --   -0.33704  -0.33536  -0.33528  -0.33349  -0.33340
 Alpha  occ. eigenvalues --   -0.33253  -0.33242  -0.33228  -0.33103  -0.33044
 Alpha  occ. eigenvalues --   -0.32780  -0.32340  -0.31760  -0.31683  -0.29599
 Alpha  occ. eigenvalues --   -0.28820  -0.28397  -0.28090  -0.27920  -0.27196
 Alpha  occ. eigenvalues --   -0.26631  -0.25368  -0.25320  -0.25243  -0.23927
 Alpha  occ. eigenvalues --   -0.23411  -0.21817  -0.17034
 Alpha virt. eigenvalues --   -0.10054  -0.03678  -0.02400  -0.01871   0.01143
 Alpha virt. eigenvalues --    0.01828   0.02220   0.02589   0.03635   0.04918
 Alpha virt. eigenvalues --    0.05477   0.05596   0.07920   0.08218   0.08374

 Mulliken atomic charges:
              1
     1  Si   0.649506
     2  C   -0.074014
     3  C    0.118159
     4  C   -0.224197
     5  H    0.106616
     6  C    0.119002
     7  C   -0.118320
     8  H    0.087961
     9  C   -0.097435
    10  H    0.087935
    11  C   -0.097379
    12  H    0.087939
    13  C   -0.118375
    14  H    0.087709
    15  C    0.119637
    16  C   -0.224557
    17  H    0.106295
    18  C    0.118052
    19  C    0.362852
    20  C   -0.579171
    21  C   -0.251110
    22  H    0.098009
    23  C   -0.319980
    24  H    0.117082
    25  H    0.100317
    26  H    0.092013
    27  C   -0.320036
    28  H    0.092735
    29  H    0.099003
    30  H    0.115251
    31  C   -0.248193
    32  H    0.106124
    33  C   -0.323753
    34  H    0.096961
    35  H    0.102127
    36  H    0.105581
    37  C   -0.319131
    38  H    0.102896
    39  H    0.115735
    40  H    0.090840
    41  C   -0.247987
    42  H    0.107878
    43  C   -0.324723
    44  H    0.103885
    45  H    0.096559
    46  H    0.105318
    47  C   -0.319464
    48  H    0.113656
    49  H    0.103446
    50  H    0.090746
    51  Si   0.649517
    52  C   -0.074015
    53  C    0.118159
    54  C   -0.224196
    55  H    0.106614
    56  C    0.119004
    57  C   -0.118321
    58  H    0.087960
    59  C   -0.097434
    60  H    0.087935
    61  C   -0.097380
    62  H    0.087938
    63  C   -0.118374
    64  H    0.087709
    65  C    0.119636
    66  C   -0.224556
    67  H    0.106295
    68  C    0.118053
    69  C    0.362849
    70  C   -0.579174
    71  C   -0.251107
    72  H    0.098009
    73  C   -0.319981
    74  H    0.117080
    75  H    0.100317
    76  H    0.092014
    77  C   -0.320033
    78  H    0.092735
    79  H    0.099001
    80  H    0.115252
    81  C   -0.248195
    82  H    0.106121
    83  C   -0.323752
    84  H    0.096961
    85  H    0.102124
    86  H    0.105583
    87  C   -0.319132
    88  H    0.102898
    89  H    0.115735
    90  H    0.090838
    91  C   -0.247987
    92  H    0.107877
    93  C   -0.324723
    94  H    0.103885
    95  H    0.096559
    96  H    0.105318
    97  C   -0.319465
    98  H    0.113657
    99  H    0.103446
   100  H    0.090746
 Sum of Mulliken atomic charges =   0.00000

 Dipole moment (field-independent basis, Debye):
    X=              0.0000    Y=              0.0000    Z=              0.0000  Tot=              0.0000
 Quadrupole moment (field-independent basis, Debye-Ang):
   XX=           -264.2451   YY=           -268.9366   ZZ=           -300.2348
   XY=              0.2529   XZ=             -0.9786   YZ=              0.6023

 Normal termination of Gaussian 09 at Sun Jan  1 21:53:37 2012.
