 Gaussian 09, Revision C.01,
 Gaussian 09:  EM64L-G09RevC.01 23-Sep-2011

 ----------------------------------------------------------------
 #p scf=verytight b3lyp/6-31g(d,p) td(singlets,nstates=25) nosymm
 ----------------------------------------------------------------

 (Enter /apps/gaussian/g09_c01/g09/l101.exe)
 ----------------
 CSD ENTRY k01029
 ----------------
 Charge =  0 Multiplicity = 1

                          Input orientation:
 ---------------------------------------------------------------------
 Center     Atomic      Atomic             Coordinates (Angstroms)
 Number     Number       Type             X           Y           Z
 ---------------------------------------------------------------------
      1         14           0        7.324622    3.494057   13.734540
      2          6           0        7.895200    5.274755    9.669250
      3          6           0        6.902481    6.163429    9.191150
      4          6           0        5.822514    6.575043    9.991839
      5          1           0        5.774883    6.265600   10.887273
      6          6           0        4.827323    7.414731    9.525582
      7          6           0        3.727446    7.826388   10.338336
      8          1           0        3.670457    7.522450   11.237785
      9          6           0        2.765829    8.639283    9.850334
     10          1           0        2.047264    8.907831   10.411066
     11          6           0        2.822281    9.096259    8.507123
     12          1           0        2.134840    9.662127    8.174980
     13          6           0        3.837914    8.738285    7.698377
     14          1           0        3.859170    9.059184    6.804715
     15          6           0        4.886485    7.881647    8.164099
     16          6           0        5.950572    7.501932    7.368337
     17          1           0        5.994204    7.825606    6.475454
     18          6           0        6.972875    6.649754    7.830727
     19          6           0        7.774897    4.744225   10.998113
     20          6           0        7.630909    4.265999   12.095672
     21          6           0        7.499851    1.628423   13.537146
     22          1           0        7.331579    1.214442   14.430715
     23          6           0        6.468229    1.047033   12.553383
     24          1           0        6.554478    1.496460   11.685536
     25          1           0        5.565627    1.187303   12.907355
     26          1           0        6.629925    0.087171   12.440401
     27          6           0        8.919967    1.241712   13.108371
     28          1           0        8.976011    0.268591   13.002933
     29          1           0        9.557995    1.532438   13.792439
     30          1           0        9.133966    1.676045   12.257614
     31          6           0        8.651520    4.139651   14.895107
     32          1           0        9.524416    3.903152   14.468839
     33          6           0        8.665488    3.472364   16.271401
     34          1           0        9.472455    3.743598   16.756263
     35          1           0        8.661897    2.498519   16.163946
     36          1           0        7.873196    3.748188   16.776335
     37          6           0        8.654191    5.662241   15.036047
     38          1           0        7.832916    5.948884   15.487729
     39          1           0        8.699067    6.071954   14.148887
     40          1           0        9.431580    5.939937   15.563164
     41          6           0        5.574349    3.936634   14.242474
     42          1           0        5.023189    3.487993   13.537053
     43          6           0        5.145792    3.230079   15.485239
     44          1           0        5.488258    2.310959   15.474981
     45          1           0        4.166996    3.212523   15.530797
     46          1           0        5.500689    3.701203   16.268019
     47          6           0        5.169171    5.334439   14.121928
     48          1           0        5.539637    5.712011   13.296012
     49          1           0        5.505438    5.838685   14.891831
     50          1           0        4.191306    5.390222   14.097732
     51         14           0        8.624116    8.033907    2.943714
     52          6           0        8.053483    6.252211    7.009000
     53          6           0        9.046202    5.363536    7.487101
     54          6           0       10.125175    4.951977    6.686513
     55          1           0       10.173854    5.262364    5.790982
     56          6           0       11.121360    4.112234    7.152669
     57          6           0       12.221292    3.701576    6.339919
     58          1           0       12.278226    4.004515    5.440466
     59          6           0       13.182908    2.888681    6.827921
     60          1           0       13.901418    2.619134    6.267184
     61          6           0       13.126402    2.430707    8.171128
     62          1           0       13.813898    1.865837    8.503275
     63          6           0       12.110768    2.788681    8.979874
     64          1           0       12.089513    2.467782    9.873536
     65          6           0       11.062198    3.645319    8.514152
     66          6           0        9.997172    4.026086    9.310019
     67          1           0        9.954479    3.701360   10.202797
     68          6           0        8.974815    4.877265    8.847624
     69          6           0        8.173786    6.782740    5.680137
     70          6           0        8.317774    7.260967    4.582578
     71          6           0        8.448832    9.898543    3.141105
     72          1           0        8.616165   10.313576    2.247640
     73          6           0        9.479460   10.479987    4.124968
     74          1           0        9.394205   10.030505    4.992714
     75          1           0       10.383056   10.339662    3.770896
     76          1           0        9.318812   11.440793    4.237854
     77          6           0        7.028715   10.285254    3.569879
     78          1           0        6.972671   11.258375    3.675318
     79          1           0        6.390688    9.994528    2.885811
     80          1           0        6.813723    9.850974    4.420738
     81          6           0        7.297218    7.388313    1.783147
     82          1           0        6.423273    7.623867    2.209513
     83          6           0        7.282255    8.055654    0.406955
     84          1           0        6.475235    7.783422   -0.077912
     85          1           0        7.285792    9.028500    0.514406
     86          1           0        8.075486    7.778777   -0.098085
     87          6           0        7.294546    5.865723    1.642207
     88          1           0        8.115767    5.578082    1.190522
     89          1           0        7.249615    5.455012    2.529364
     90          1           0        6.517157    5.588027    1.115090
     91          6           0       10.374388    7.591330    2.435781
     92          1           0       10.925493    8.038973    3.141197
     93          6           0       10.802945    8.297884    1.193015
     94          1           0       10.459431    9.216061    1.203371
     95          1           0       11.781687    8.314442    1.147454
     96          1           0       10.448049    7.826761    0.410236
     97          6           0       10.778573    6.193579    2.556428
     98          1           0       10.409046    5.814955    3.382238
     99          1           0       10.442252    5.688334    1.786520
    100          1           0       11.757376    6.136743    2.580518
 ---------------------------------------------------------------------

 SCF Done:  E(RB3LYP) =  -2287.65351582     A.U. after   16 cycles

 Excitation energies and oscillator strengths:

 Excited state symmetry could not be determined.
 Excited State   1:      Singlet-?Sym    1.7531 eV  707.22 nm  f=0.1678  <S**2>=0.000
     173 ->174         0.71136
     173 <-174        -0.10666
 This state for optimization and/or second-order correction.
 Total Energy, E(TD-HF/TD-KS) =  -2287.58908974
 Copying the excited state density for this state as the 1-particle RhoCI density.

 Excited state symmetry could not be determined.
 Excited State   2:      Singlet-?Sym    2.7586 eV  449.45 nm  f=0.0000  <S**2>=0.000
     172 ->174         0.68353
     173 ->175        -0.17084

 Excited state symmetry could not be determined.
 Excited State   3:      Singlet-?Sym    3.1894 eV  388.74 nm  f=0.0635  <S**2>=0.000
     170 ->174         0.22065
     171 ->174         0.60216
     173 ->176         0.25057
     173 ->177        -0.14954

 Excited state symmetry could not be determined.
 Excited State   4:      Singlet-?Sym    3.1975 eV  387.75 nm  f=0.0512  <S**2>=0.000
     170 ->174         0.51786
     171 ->174        -0.26599
     173 ->177        -0.39254

 Excited state symmetry could not be determined.
 Excited State   5:      Singlet-?Sym    3.2349 eV  383.27 nm  f=0.0000  <S**2>=0.000
     172 ->174         0.16918
     173 ->175         0.68137

 Excited state symmetry could not be determined.
 Excited State   6:      Singlet-?Sym    3.6162 eV  342.86 nm  f=0.0099  <S**2>=0.000
     164 ->174        -0.14682
     168 ->174         0.66920
     173 ->176        -0.13652

 Excited state symmetry could not be determined.
 Excited State   7:      Singlet-?Sym    3.6315 eV  341.42 nm  f=0.0000  <S**2>=0.000
     163 ->174        -0.13630
     167 ->174         0.35601
     169 ->174         0.58985

 Excited state symmetry could not be determined.
 Excited State   8:      Singlet-?Sym    3.6867 eV  336.30 nm  f=0.2627  <S**2>=0.000
     168 ->174         0.13905
     171 ->174        -0.24416
     173 ->176         0.63155

 Excited state symmetry could not be determined.
 Excited State   9:      Singlet-?Sym    3.7381 eV  331.68 nm  f=0.0000  <S**2>=0.000
     167 ->174         0.58865
     169 ->174        -0.36293

 Excited state symmetry could not be determined.
 Excited State  10:      Singlet-?Sym    4.1202 eV  300.91 nm  f=0.0004  <S**2>=0.000
     166 ->174         0.68847

 Excited state symmetry could not be determined.
 Excited State  11:      Singlet-?Sym    4.2173 eV  293.99 nm  f=2.2113  <S**2>=0.000
     170 ->174         0.42786
     173 ->177         0.56005

 Excited state symmetry could not be determined.
 Excited State  12:      Singlet-?Sym    4.2345 eV  292.80 nm  f=0.0000  <S**2>=0.000
     165 ->174         0.61836
     172 ->177         0.15741
     173 ->178        -0.26325

 Excited state symmetry could not be determined.
 Excited State  13:      Singlet-?Sym    4.3895 eV  282.46 nm  f=0.0016  <S**2>=0.000
     164 ->174         0.67986
     168 ->174         0.15666

 Excited state symmetry could not be determined.
 Excited State  14:      Singlet-?Sym    4.4173 eV  280.68 nm  f=0.0000  <S**2>=0.000
     163 ->174         0.67902
     167 ->174         0.14001

 Excited state symmetry could not be determined.
 Excited State  15:      Singlet-?Sym    4.4999 eV  275.53 nm  f=0.0262  <S**2>=0.000
     162 ->174         0.65457
     166 ->174         0.10164
     172 ->175         0.13676
     173 ->180        -0.17478

 Excited state symmetry could not be determined.
 Excited State  16:      Singlet-?Sym    4.5786 eV  270.79 nm  f=0.0000  <S**2>=0.000
     161 ->174         0.66811
     173 ->182        -0.16982

 Excited state symmetry could not be determined.
 Excited State  17:      Singlet-?Sym    4.5879 eV  270.24 nm  f=0.0000  <S**2>=0.000
     173 ->178         0.19581
     173 ->179         0.65348

 Excited state symmetry could not be determined.
 Excited State  18:      Singlet-?Sym    4.6007 eV  269.49 nm  f=0.0771  <S**2>=0.000
     170 ->177         0.11142
     172 ->175         0.65813
     173 ->180         0.20201

 Excited state symmetry could not be determined.
 Excited State  19:      Singlet-?Sym    4.6158 eV  268.61 nm  f=0.0000  <S**2>=0.000
     160 ->174         0.19399
     165 ->174         0.28926
     170 ->175         0.28107
     172 ->177        -0.13969
     173 ->178         0.46166
     173 ->179        -0.23331

 Excited state symmetry could not be determined.
 Excited State  20:      Singlet-?Sym    4.7102 eV  263.22 nm  f=0.0054  <S**2>=0.000
     173 ->181         0.69266

 Excited state symmetry could not be determined.
 Excited State  21:      Singlet-?Sym    4.7714 eV  259.85 nm  f=0.0000  <S**2>=0.000
     160 ->174        -0.23392
     170 ->175        -0.25952
     172 ->177         0.46206
     173 ->178         0.37554

 Excited state symmetry could not be determined.
 Excited State  22:      Singlet-?Sym    4.8785 eV  254.14 nm  f=0.0000  <S**2>=0.000
     160 ->174         0.59431
     170 ->175        -0.35184

 Excited state symmetry could not be determined.
 Excited State  23:      Singlet-?Sym    4.8858 eV  253.76 nm  f=0.0317  <S**2>=0.000
     162 ->174         0.20383
     172 ->175        -0.16320
     173 ->180         0.63790

 Excited state symmetry could not be determined.
 Excited State  24:      Singlet-?Sym    4.9060 eV  252.72 nm  f=0.0000  <S**2>=0.000
     171 ->175        -0.26323
     172 ->176         0.58079
     173 ->182         0.26445

 Excited state symmetry could not be determined.
 Excited State  25:      Singlet-?Sym    4.9429 eV  250.83 nm  f=0.0000  <S**2>=0.000
     171 ->175         0.62305
     172 ->176         0.31168

 Alpha  occ. eigenvalues --  -66.10412 -66.10409 -10.21458 -10.21453 -10.20193
 Alpha  occ. eigenvalues --  -10.20185 -10.20139 -10.20134 -10.19254 -10.19247
 Alpha  occ. eigenvalues --  -10.19202 -10.19197 -10.18169 -10.18167 -10.17275
 Alpha  occ. eigenvalues --  -10.17270 -10.17228 -10.17227 -10.17199 -10.17197
 Alpha  occ. eigenvalues --  -10.17196 -10.17195 -10.17150 -10.17148 -10.17105
 Alpha  occ. eigenvalues --  -10.17105 -10.15585 -10.15583 -10.15203 -10.15202
 Alpha  occ. eigenvalues --  -10.14796 -10.14788 -10.14317 -10.14312 -10.13460
 Alpha  occ. eigenvalues --  -10.13455 -10.13452 -10.13445 -10.13306 -10.13303
 Alpha  occ. eigenvalues --  -10.13186 -10.13170 -10.12936 -10.12930 -10.12916
 Alpha  occ. eigenvalues --  -10.12904  -5.25116  -5.25113  -3.61123  -3.61120
 Alpha  occ. eigenvalues --   -3.60909  -3.60906  -3.60887  -3.60884  -0.89326
 Alpha  occ. eigenvalues --   -0.87480  -0.85595  -0.82383  -0.81750  -0.81192
 Alpha  occ. eigenvalues --   -0.81152  -0.79381  -0.79372  -0.78841  -0.78705
 Alpha  occ. eigenvalues --   -0.78702  -0.78453  -0.77261  -0.74169  -0.74164
 Alpha  occ. eigenvalues --   -0.73496  -0.72610  -0.71712  -0.71705  -0.70792
 Alpha  occ. eigenvalues --   -0.70788  -0.70559  -0.70555  -0.69360  -0.67711
 Alpha  occ. eigenvalues --   -0.63229  -0.63144  -0.62811  -0.61905  -0.61633
 Alpha  occ. eigenvalues --   -0.61409  -0.60963  -0.59044  -0.59035  -0.59017
 Alpha  occ. eigenvalues --   -0.58994  -0.58759  -0.54147  -0.53775  -0.53339
 Alpha  occ. eigenvalues --   -0.52568  -0.52551  -0.50773  -0.49834  -0.48653
 Alpha  occ. eigenvalues --   -0.48258  -0.47664  -0.47494  -0.47151  -0.46349
 Alpha  occ. eigenvalues --   -0.46320  -0.45487  -0.45485  -0.45410  -0.44928
 Alpha  occ. eigenvalues --   -0.44914  -0.44633  -0.44578  -0.44168  -0.43732
 Alpha  occ. eigenvalues --   -0.43503  -0.43466  -0.43167  -0.42924  -0.42366
 Alpha  occ. eigenvalues --   -0.42011  -0.41999  -0.41381  -0.41367  -0.41324
 Alpha  occ. eigenvalues --   -0.41194  -0.41106  -0.40925  -0.40699  -0.40675
 Alpha  occ. eigenvalues --   -0.40222  -0.40216  -0.40068  -0.39639  -0.39623
 Alpha  occ. eigenvalues --   -0.38821  -0.38806  -0.36687  -0.36599  -0.35950
 Alpha  occ. eigenvalues --   -0.35045  -0.35029  -0.34633  -0.34632  -0.34136
 Alpha  occ. eigenvalues --   -0.33733  -0.33666  -0.33622  -0.33470  -0.33423
 Alpha  occ. eigenvalues --   -0.33406  -0.33238  -0.33192  -0.33010  -0.32702
 Alpha  occ. eigenvalues --   -0.32643  -0.32274  -0.31832  -0.31711  -0.29451
 Alpha  occ. eigenvalues --   -0.28653  -0.28244  -0.28146  -0.28029  -0.27023
 Alpha  occ. eigenvalues --   -0.26336  -0.25311  -0.25124  -0.24955  -0.23660
 Alpha  occ. eigenvalues --   -0.23294  -0.21676  -0.16849
 Alpha virt. eigenvalues --   -0.09580  -0.03302  -0.01691  -0.01434   0.01918
 Alpha virt. eigenvalues --    0.02775   0.03061   0.03199   0.04040   0.05786
 Alpha virt. eigenvalues --    0.07238   0.07301   0.09605   0.09705   0.10068

 Mulliken atomic charges:
              1
     1  Si   0.575921
     2  C   -0.075619
     3  C    0.111383
     4  C   -0.158241
     5  H    0.059371
     6  C    0.103464
     7  C   -0.087060
     8  H    0.058539
     9  C   -0.062930
    10  H    0.059205
    11  C   -0.062794
    12  H    0.059087
    13  C   -0.081092
    14  H    0.056565
    15  C    0.105085
    16  C   -0.170396
    17  H    0.066833
    18  C    0.113361
    19  C    0.394303
    20  C   -0.609772
    21  C   -0.287497
    22  H    0.104778
    23  C   -0.306661
    24  H    0.124150
    25  H    0.103269
    26  H    0.093708
    27  C   -0.309668
    28  H    0.094523
    29  H    0.104778
    30  H    0.121441
    31  C   -0.272495
    32  H    0.112737
    33  C   -0.311333
    34  H    0.097980
    35  H    0.103537
    36  H    0.109057
    37  C   -0.305088
    38  H    0.106201
    39  H    0.117896
    40  H    0.090793
    41  C   -0.277300
    42  H    0.115940
    43  C   -0.308056
    44  H    0.105187
    45  H    0.096632
    46  H    0.108992
    47  C   -0.304527
    48  H    0.120627
    49  H    0.104758
    50  H    0.090598
    51  Si   0.576274
    52  C   -0.076397
    53  C    0.112466
    54  C   -0.158646
    55  H    0.059668
    56  C    0.102909
    57  C   -0.086778
    58  H    0.058440
    59  C   -0.063266
    60  H    0.059285
    61  C   -0.062372
    62  H    0.058917
    63  C   -0.081297
    64  H    0.056585
    65  C    0.105121
    66  C   -0.171147
    67  H    0.066910
    68  C    0.113932
    69  C    0.393622
    70  C   -0.609374
    71  C   -0.287270
    72  H    0.104821
    73  C   -0.306857
    74  H    0.124239
    75  H    0.103243
    76  H    0.093703
    77  C   -0.309705
    78  H    0.094521
    79  H    0.104757
    80  H    0.121410
    81  C   -0.272506
    82  H    0.112716
    83  C   -0.311235
    84  H    0.097994
    85  H    0.103622
    86  H    0.108978
    87  C   -0.305259
    88  H    0.106181
    89  H    0.117890
    90  H    0.090794
    91  C   -0.277046
    92  H    0.116010
    93  C   -0.307877
    94  H    0.105208
    95  H    0.096635
    96  H    0.108990
    97  C   -0.304910
    98  H    0.120669
    99  H    0.104746
   100  H    0.090512
 Sum of Mulliken atomic charges =   0.00000

 Dipole moment (field-independent basis, Debye):
    X=              0.0001    Y=              0.0010    Z=             -0.0006  Tot=              0.0012
 Quadrupole moment (field-independent basis, Debye-Ang):
   XX=           -268.6324   YY=           -279.1257   ZZ=           -263.6617
   XY=            -10.7372   XZ=             -6.9928   YZ=            -11.5295

 Normal termination of Gaussian 09 at Sat Feb  2 01:38:40 2013.
