 Gaussian 09, Revision C.01,
 Gaussian 09:  EM64L-G09RevC.01 23-Sep-2011

 ----------------------------------------------------------------
 #p scf=verytight b3lyp/6-31g(d,p) td(singlets,nstates=25) nosymm
 ----------------------------------------------------------------

 (Enter /apps/gaussian/g09_c01/g09/l101.exe)
 ----------------
 CSD ENTRY k01029
 ----------------
 Charge =  0 Multiplicity = 1

                          Input orientation:
 ---------------------------------------------------------------------
 Center     Atomic      Atomic             Coordinates (Angstroms)
 Number     Number       Type             X           Y           Z
 ---------------------------------------------------------------------
      1         14           0        7.324622    3.494057   13.734540
      2          6           0        7.895200    5.274755    9.669250
      3          6           0        6.902481    6.163429    9.191150
      4          6           0        5.822514    6.575043    9.991839
      5          1           0        5.774883    6.265600   10.887273
      6          6           0        4.827323    7.414731    9.525582
      7          6           0        3.727446    7.826388   10.338336
      8          1           0        3.670457    7.522450   11.237785
      9          6           0        2.765829    8.639283    9.850334
     10          1           0        2.047264    8.907831   10.411066
     11          6           0        2.822281    9.096259    8.507123
     12          1           0        2.134840    9.662127    8.174980
     13          6           0        3.837914    8.738285    7.698377
     14          1           0        3.859170    9.059184    6.804715
     15          6           0        4.886485    7.881647    8.164099
     16          6           0        5.950572    7.501932    7.368337
     17          1           0        5.994204    7.825606    6.475454
     18          6           0        6.972875    6.649754    7.830727
     19          6           0        7.774897    4.744225   10.998113
     20          6           0        7.630909    4.265999   12.095672
     21          6           0        7.499851    1.628423   13.537146
     22          1           0        7.331579    1.214442   14.430715
     23          6           0        6.468229    1.047033   12.553383
     24          1           0        6.554478    1.496460   11.685536
     25          1           0        5.565627    1.187303   12.907355
     26          1           0        6.629925    0.087171   12.440401
     27          6           0        8.919967    1.241712   13.108371
     28          1           0        8.976011    0.268591   13.002933
     29          1           0        9.557995    1.532438   13.792439
     30          1           0        9.133966    1.676045   12.257614
     31          6           0        8.651520    4.139651   14.895107
     32          1           0        9.524416    3.903152   14.468839
     33          6           0        8.665488    3.472364   16.271401
     34          1           0        9.472455    3.743598   16.756263
     35          1           0        8.661897    2.498519   16.163946
     36          1           0        7.873196    3.748188   16.776335
     37          6           0        8.654191    5.662241   15.036047
     38          1           0        7.832916    5.948884   15.487729
     39          1           0        8.699067    6.071954   14.148887
     40          1           0        9.431580    5.939937   15.563164
     41          6           0        5.574349    3.936634   14.242474
     42          1           0        5.023189    3.487993   13.537053
     43          6           0        5.145792    3.230079   15.485239
     44          1           0        5.488258    2.310959   15.474981
     45          1           0        4.166996    3.212523   15.530797
     46          1           0        5.500689    3.701203   16.268019
     47          6           0        5.169171    5.334439   14.121928
     48          1           0        5.539637    5.712011   13.296012
     49          1           0        5.505438    5.838685   14.891831
     50          1           0        4.191306    5.390222   14.097732
     51         14           0        8.624116    8.033907    2.943714
     52          6           0        8.053483    6.252211    7.009000
     53          6           0        9.046202    5.363536    7.487101
     54          6           0       10.125175    4.951977    6.686513
     55          1           0       10.173854    5.262364    5.790982
     56          6           0       11.121360    4.112234    7.152669
     57          6           0       12.221292    3.701576    6.339919
     58          1           0       12.278226    4.004515    5.440466
     59          6           0       13.182908    2.888681    6.827921
     60          1           0       13.901418    2.619134    6.267184
     61          6           0       13.126402    2.430707    8.171128
     62          1           0       13.813898    1.865837    8.503275
     63          6           0       12.110768    2.788681    8.979874
     64          1           0       12.089513    2.467782    9.873536
     65          6           0       11.062198    3.645319    8.514152
     66          6           0        9.997172    4.026086    9.310019
     67          1           0        9.954479    3.701360   10.202797
     68          6           0        8.974815    4.877265    8.847624
     69          6           0        8.173786    6.782740    5.680137
     70          6           0        8.317774    7.260967    4.582578
     71          6           0        8.448832    9.898543    3.141105
     72          1           0        8.616165   10.313576    2.247640
     73          6           0        9.479460   10.479987    4.124968
     74          1           0        9.394205   10.030505    4.992714
     75          1           0       10.383056   10.339662    3.770896
     76          1           0        9.318812   11.440793    4.237854
     77          6           0        7.028715   10.285254    3.569879
     78          1           0        6.972671   11.258375    3.675318
     79          1           0        6.390688    9.994528    2.885811
     80          1           0        6.813723    9.850974    4.420738
     81          6           0        7.297218    7.388313    1.783147
     82          1           0        6.423273    7.623867    2.209513
     83          6           0        7.282255    8.055654    0.406955
     84          1           0        6.475235    7.783422   -0.077912
     85          1           0        7.285792    9.028500    0.514406
     86          1           0        8.075486    7.778777   -0.098085
     87          6           0        7.294546    5.865723    1.642207
     88          1           0        8.115767    5.578082    1.190522
     89          1           0        7.249615    5.455012    2.529364
     90          1           0        6.517157    5.588027    1.115090
     91          6           0       10.374388    7.591330    2.435781
     92          1           0       10.925493    8.038973    3.141197
     93          6           0       10.802945    8.297884    1.193015
     94          1           0       10.459431    9.216061    1.203371
     95          1           0       11.781687    8.314442    1.147454
     96          1           0       10.448049    7.826761    0.410236
     97          6           0       10.778573    6.193579    2.556428
     98          1           0       10.409046    5.814955    3.382238
     99          1           0       10.442252    5.688334    1.786520
    100          1           0       11.757376    6.136743    2.580518
    101         14           0       14.889600    3.494060   13.734500
    102          6           0       15.460200    5.274750    9.669250
    103          6           0       14.467500    6.163430    9.191150
    104          6           0       13.387500    6.575040    9.991840
    105          1           0       13.339900    6.265600   10.887300
    106          6           0       12.392300    7.414730    9.525580
    107          6           0       11.292400    7.826390   10.338300
    108          1           0       11.235500    7.522450   11.237800
    109          6           0       10.330800    8.639280    9.850330
    110          1           0        9.612260    8.907830   10.411100
    111          6           0       10.387300    9.096260    8.507120
    112          1           0        9.699840    9.662130    8.174980
    113          6           0       11.402900    8.738280    7.698380
    114          1           0       11.424200    9.059180    6.804710
    115          6           0       12.451500    7.881650    8.164100
    116          6           0       13.515600    7.501930    7.368340
    117          1           0       13.559200    7.825610    6.475450
    118          6           0       14.537900    6.649750    7.830730
    119          6           0       15.339900    4.744220   10.998100
    120          6           0       15.195900    4.266000   12.095700
    121          6           0       15.064900    1.628420   13.537100
    122          1           0       14.896600    1.214440   14.430700
    123          6           0       14.033200    1.047030   12.553400
    124          1           0       14.119500    1.496460   11.685500
    125          1           0       13.130600    1.187300   12.907400
    126          1           0       14.194900    0.087171   12.440400
    127          6           0       16.485000    1.241710   13.108400
    128          1           0       16.541000    0.268591   13.002900
    129          1           0       17.123000    1.532440   13.792400
    130          1           0       16.699000    1.676050   12.257600
    131          6           0       16.216500    4.139650   14.895100
    132          1           0       17.089400    3.903150   14.468800
    133          6           0       16.230500    3.472360   16.271400
    134          1           0       17.037500    3.743600   16.756300
    135          1           0       16.226900    2.498520   16.163900
    136          1           0       15.438200    3.748190   16.776300
    137          6           0       16.219200    5.662240   15.036000
    138          1           0       15.397900    5.948880   15.487700
    139          1           0       16.264100    6.071950   14.148900
    140          1           0       16.996600    5.939940   15.563200
    141          6           0       13.139300    3.936630   14.242500
    142          1           0       12.588200    3.487990   13.537100
    143          6           0       12.710800    3.230080   15.485200
    144          1           0       13.053300    2.310960   15.475000
    145          1           0       11.732000    3.212520   15.530800
    146          1           0       13.065700    3.701200   16.268000
    147          6           0       12.734200    5.334440   14.121900
    148          1           0       13.104600    5.712010   13.296000
    149          1           0       13.070400    5.838690   14.891800
    150          1           0       11.756300    5.390220   14.097700
    151         14           0       16.189100    8.033910    2.943710
    152          6           0       15.618500    6.252210    7.009000
    153          6           0       16.611200    5.363540    7.487100
    154          6           0       17.690200    4.951980    6.686510
    155          1           0       17.738900    5.262360    5.790980
    156          6           0       18.686400    4.112230    7.152670
    157          6           0       19.786300    3.701580    6.339920
    158          1           0       19.843200    4.004520    5.440470
    159          6           0       20.747900    2.888680    6.827920
    160          1           0       21.466400    2.619130    6.267180
    161          6           0       20.691400    2.430710    8.171130
    162          1           0       21.378900    1.865840    8.503270
    163          6           0       19.675800    2.788680    8.979870
    164          1           0       19.654500    2.467780    9.873540
    165          6           0       18.627200    3.645320    8.514150
    166          6           0       17.562200    4.026090    9.310020
    167          1           0       17.519500    3.701360   10.202800
    168          6           0       16.539800    4.877270    8.847620
    169          6           0       15.738800    6.782740    5.680140
    170          6           0       15.882800    7.260970    4.582580
    171          6           0       16.013800    9.898540    3.141100
    172          1           0       16.181200   10.313600    2.247640
    173          6           0       17.044500   10.480000    4.124970
    174          1           0       16.959200   10.030500    4.992710
    175          1           0       17.948100   10.339700    3.770900
    176          1           0       16.883800   11.440800    4.237850
    177          6           0       14.593700   10.285300    3.569880
    178          1           0       14.537700   11.258400    3.675320
    179          1           0       13.955700    9.994530    2.885810
    180          1           0       14.378700    9.850970    4.420740
    181          6           0       14.862200    7.388310    1.783150
    182          1           0       13.988300    7.623870    2.209510
    183          6           0       14.847300    8.055650    0.406955
    184          1           0       14.040200    7.783420   -0.077912
    185          1           0       14.850800    9.028500    0.514406
    186          1           0       15.640500    7.778780   -0.098085
    187          6           0       14.859500    5.865720    1.642210
    188          1           0       15.680800    5.578080    1.190520
    189          1           0       14.814600    5.455010    2.529360
    190          1           0       14.082200    5.588030    1.115090
    191          6           0       17.939400    7.591330    2.435780
    192          1           0       18.490500    8.038970    3.141200
    193          6           0       18.367900    8.297880    1.193020
    194          1           0       18.024400    9.216060    1.203370
    195          1           0       19.346700    8.314440    1.147450
    196          1           0       18.013000    7.826760    0.410236
    197          6           0       18.343600    6.193580    2.556430
    198          1           0       17.974000    5.814950    3.382240
    199          1           0       18.007300    5.688330    1.786520
    200          1           0       19.322400    6.136740    2.580520
 ---------------------------------------------------------------------

 SCF Done:  E(RB3LYP) =  -4575.30624962     A.U. after   16 cycles

 Excitation energies and oscillator strengths:

 Excited state symmetry could not be determined.
 Excited State   1:      Singlet-?Sym    1.5398 eV  805.17 nm  f=0.0379  <S**2>=0.000
     345 -> 348        0.26445
     346 -> 347        0.65513
 This state for optimization and/or second-order correction.
 Total Energy, E(TD-HF/TD-KS) =  -4575.24966146
 Copying the excited state density for this state as the 1-particle RhoCI density.

 Excited state symmetry could not be determined.
 Excited State   2:      Singlet-?Sym    1.5752 eV  787.11 nm  f=0.0000  <S**2>=0.000
     345 -> 347        0.56330
     346 -> 348        0.42398

 Excited state symmetry could not be determined.
 Excited State   3:      Singlet-?Sym    1.7230 eV  719.57 nm  f=0.0000  <S**2>=0.000
     345 -> 347       -0.42836
     346 -> 348        0.56722

 Excited state symmetry could not be determined.
 Excited State   4:      Singlet-?Sym    1.7980 eV  689.58 nm  f=0.2375  <S**2>=0.000
     345 -> 348        0.65561
     346 -> 347       -0.27067

 Excited state symmetry could not be determined.
 Excited State   5:      Singlet-?Sym    2.6695 eV  464.44 nm  f=0.0000  <S**2>=0.000
     343 -> 348        0.16773
     344 -> 347        0.67440

 Excited state symmetry could not be determined.
 Excited State   6:      Singlet-?Sym    2.7369 eV  453.00 nm  f=0.0074  <S**2>=0.000
     343 -> 347        0.47596
     344 -> 348        0.49441
     346 -> 349        0.11974

 Excited state symmetry could not be determined.
 Excited State   7:      Singlet-?Sym    2.8506 eV  434.95 nm  f=0.0023  <S**2>=0.000
     343 -> 347        0.49844
     344 -> 348       -0.48780

 Excited state symmetry could not be determined.
 Excited State   8:      Singlet-?Sym    2.9106 eV  425.97 nm  f=0.0000  <S**2>=0.000
     342 -> 347       -0.11215
     343 -> 348        0.65819
     344 -> 347       -0.17994
     346 -> 350       -0.10271

 Excited state symmetry could not be determined.
 Excited State   9:      Singlet-?Sym    3.1710 eV  390.99 nm  f=0.0000  <S**2>=0.000
     339 -> 348        0.25335
     340 -> 347        0.48149
     342 -> 347        0.19958
     345 -> 353       -0.23180
     346 -> 354       -0.26901

 Excited state symmetry could not be determined.
 Excited State  10:      Singlet-?Sym    3.1740 eV  390.62 nm  f=0.0000  <S**2>=0.000
     340 -> 347       -0.20378
     341 -> 348        0.25896
     342 -> 347        0.45165
     343 -> 348        0.12654
     345 -> 349        0.11524
     345 -> 351        0.12322
     345 -> 353        0.10828
     346 -> 350        0.30911
     346 -> 352       -0.11871

 Excited state symmetry could not be determined.
 Excited State  11:      Singlet-?Sym    3.1793 eV  389.98 nm  f=0.1118  <S**2>=0.000
     339 -> 347        0.48490
     340 -> 348        0.30027
     345 -> 354        0.26140
     346 -> 353        0.29724

 Excited state symmetry could not be determined.
 Excited State  12:      Singlet-?Sym    3.1889 eV  388.80 nm  f=0.0648  <S**2>=0.000
     341 -> 347        0.44064
     342 -> 348        0.31682
     345 -> 350       -0.20248
     345 -> 352        0.13508
     346 -> 349       -0.31884
     346 -> 351       -0.15905

 Excited state symmetry could not be determined.
 Excited State  13:      Singlet-?Sym    3.2342 eV  383.36 nm  f=0.0267  <S**2>=0.000
     341 -> 347        0.29289
     342 -> 348        0.13674
     346 -> 349        0.59191
     346 -> 351       -0.15483

 Excited state symmetry could not be determined.
 Excited State  14:      Singlet-?Sym    3.2414 eV  382.50 nm  f=0.0000  <S**2>=0.000
     341 -> 348       -0.14056
     342 -> 347       -0.31626
     345 -> 349        0.20140
     346 -> 350        0.55190
     346 -> 352        0.11451

 Excited state symmetry could not be determined.
 Excited State  15:      Singlet-?Sym    3.3125 eV  374.29 nm  f=0.0000  <S**2>=0.000
     345 -> 349        0.64214
     346 -> 350       -0.24477

 Excited state symmetry could not be determined.
 Excited State  16:      Singlet-?Sym    3.3342 eV  371.86 nm  f=0.0233  <S**2>=0.000
     341 -> 347        0.14914
     345 -> 350        0.65578
     345 -> 352        0.11464
     346 -> 349       -0.12936

 Excited state symmetry could not be determined.
 Excited State  17:      Singlet-?Sym    3.3893 eV  365.81 nm  f=0.0064  <S**2>=0.000
     339 -> 347       -0.39640
     339 -> 348        0.17630
     340 -> 347       -0.13014
     340 -> 348        0.52511

 Excited state symmetry could not be determined.
 Excited State  18:      Singlet-?Sym    3.3904 eV  365.69 nm  f=0.0008  <S**2>=0.000
     339 -> 347        0.13886
     339 -> 348        0.53070
     340 -> 347       -0.37062
     340 -> 348       -0.17421
     346 -> 354       -0.10329

 Excited state symmetry could not be determined.
 Excited State  19:      Singlet-?Sym    3.4151 eV  363.05 nm  f=0.0014  <S**2>=0.000
     341 -> 347       -0.40168
     342 -> 348        0.56074

 Excited state symmetry could not be determined.
 Excited State  20:      Singlet-?Sym    3.4271 eV  361.78 nm  f=0.0000  <S**2>=0.000
     341 -> 348        0.58638
     342 -> 347       -0.34676
     346 -> 352       -0.10403

 Excited state symmetry could not be determined.
 Excited State  21:      Singlet-?Sym    3.6421 eV  340.42 nm  f=0.2715  <S**2>=0.000
     335 -> 347        0.23418
     336 -> 348        0.17266
     337 -> 347        0.10748
     341 -> 347        0.13352
     342 -> 348        0.17525
     345 -> 352       -0.10668
     346 -> 351        0.56271

 Excited state symmetry could not be determined.
 Excited State  22:      Singlet-?Sym    3.6511 eV  339.58 nm  f=0.0001  <S**2>=0.000
     335 -> 348        0.29689
     336 -> 347        0.44034
     337 -> 348        0.12253
     338 -> 347        0.18256
     341 -> 348        0.12231
     345 -> 351       -0.20196
     346 -> 352        0.28564

 Excited state symmetry could not be determined.
 Excited State  23:      Singlet-?Sym    3.6666 eV  338.15 nm  f=0.0665  <S**2>=0.000
     333 -> 347       -0.12579
     334 -> 348        0.10540
     335 -> 347        0.35799
     336 -> 348        0.26431
     337 -> 347        0.33514
     338 -> 348        0.19903
     346 -> 351       -0.28978

 Excited state symmetry could not be determined.
 Excited State  24:      Singlet-?Sym    3.6787 eV  337.04 nm  f=0.0002  <S**2>=0.000
     333 -> 348       -0.13796
     334 -> 347        0.23925
     337 -> 348        0.25057
     338 -> 347        0.35297
     341 -> 348       -0.14712
     345 -> 351        0.21670
     346 -> 352       -0.34793

 Excited state symmetry could not be determined.
 Excited State  25:      Singlet-?Sym    3.6787 eV  337.03 nm  f=0.0063  <S**2>=0.000
     333 -> 347       -0.21188
     334 -> 348        0.21372
     335 -> 347       -0.34081
     336 -> 348       -0.23850
     337 -> 347        0.38365
     338 -> 348        0.20870

 Alpha  occ. eigenvalues --  -66.10467 -66.10464 -66.10418 -66.10415 -10.21228
 Alpha  occ. eigenvalues --  -10.21223 -10.21219 -10.21214 -10.20019 -10.20012
 Alpha  occ. eigenvalues --  -10.19970 -10.19965 -10.19862 -10.19854 -10.19795
 Alpha  occ. eigenvalues --  -10.19789 -10.19140 -10.19133 -10.19090 -10.19085
 Alpha  occ. eigenvalues --  -10.18765 -10.18757 -10.18699 -10.18695 -10.18105
 Alpha  occ. eigenvalues --  -10.18103 -10.18068 -10.18065 -10.17163 -10.17158
 Alpha  occ. eigenvalues --  -10.17152 -10.17151 -10.17121 -10.17120 -10.17084
 Alpha  occ. eigenvalues --  -10.17081 -10.17073 -10.17071 -10.17025 -10.17025
 Alpha  occ. eigenvalues --  -10.16835 -10.16830 -10.16759 -10.16757 -10.16584
 Alpha  occ. eigenvalues --  -10.16583 -10.16554 -10.16553 -10.16503 -10.16501
 Alpha  occ. eigenvalues --  -10.16462 -10.16462 -10.15485 -10.15483 -10.15454
 Alpha  occ. eigenvalues --  -10.15453 -10.15309 -10.15308 -10.15236 -10.15236
 Alpha  occ. eigenvalues --  -10.14973 -10.14965 -10.14782 -10.14775 -10.14357
 Alpha  occ. eigenvalues --  -10.14352 -10.14321 -10.14317 -10.13594 -10.13587
 Alpha  occ. eigenvalues --  -10.13516 -10.13512 -10.13500 -10.13496 -10.13454
 Alpha  occ. eigenvalues --  -10.13448 -10.13430 -10.13415 -10.13397 -10.13394
 Alpha  occ. eigenvalues --  -10.13353 -10.13350 -10.13190 -10.13174 -10.13126
 Alpha  occ. eigenvalues --  -10.13121 -10.12959 -10.12947 -10.12897 -10.12891
 Alpha  occ. eigenvalues --  -10.12798 -10.12785  -5.25166  -5.25162  -5.25119
 Alpha  occ. eigenvalues --   -5.25115  -3.61170  -3.61167  -3.61124  -3.61120
 Alpha  occ. eigenvalues --   -3.60961  -3.60958  -3.60937  -3.60933  -3.60912
 Alpha  occ. eigenvalues --   -3.60909  -3.60892  -3.60889  -0.89085  -0.89047
 Alpha  occ. eigenvalues --   -0.87197  -0.87140  -0.85284  -0.85246  -0.82077
 Alpha  occ. eigenvalues --   -0.82048  -0.81567  -0.81544  -0.81250  -0.81210
 Alpha  occ. eigenvalues --   -0.81166  -0.81132  -0.79504  -0.79499  -0.79408
 Alpha  occ. eigenvalues --   -0.79401  -0.78791  -0.78788  -0.78775  -0.78773
 Alpha  occ. eigenvalues --   -0.78554  -0.78505  -0.78194  -0.78156  -0.76926
 Alpha  occ. eigenvalues --   -0.76919  -0.74055  -0.74052  -0.73832  -0.73830
 Alpha  occ. eigenvalues --   -0.73217  -0.73194  -0.72412  -0.72409  -0.71763
 Alpha  occ. eigenvalues --   -0.71750  -0.71691  -0.71683  -0.70912  -0.70907
 Alpha  occ. eigenvalues --   -0.70896  -0.70891  -0.70635  -0.70630  -0.70597
 Alpha  occ. eigenvalues --   -0.70593  -0.69131  -0.69107  -0.67429  -0.67395
 Alpha  occ. eigenvalues --   -0.63110  -0.63098  -0.62821  -0.62813  -0.62510
 Alpha  occ. eigenvalues --   -0.62507  -0.61955  -0.61951  -0.61556  -0.61554
 Alpha  occ. eigenvalues --   -0.61134  -0.61113  -0.60701  -0.60669  -0.59181
 Alpha  occ. eigenvalues --   -0.59174  -0.59094  -0.59088  -0.59039  -0.59033
 Alpha  occ. eigenvalues --   -0.59024  -0.59023  -0.58459  -0.58436  -0.53873
 Alpha  occ. eigenvalues --   -0.53862  -0.53460  -0.53451  -0.53072  -0.53051
 Alpha  occ. eigenvalues --   -0.52491  -0.52446  -0.52287  -0.52274  -0.50833
 Alpha  occ. eigenvalues --   -0.50668  -0.49820  -0.49662  -0.48339  -0.48321
 Alpha  occ. eigenvalues --   -0.48062  -0.47992  -0.47834  -0.47598  -0.47574
 Alpha  occ. eigenvalues --   -0.47431  -0.46876  -0.46850  -0.46435  -0.46390
 Alpha  occ. eigenvalues --   -0.46360  -0.46322  -0.45701  -0.45698  -0.45466
 Alpha  occ. eigenvalues --   -0.45462  -0.45166  -0.45152  -0.45114  -0.45111
 Alpha  occ. eigenvalues --   -0.44763  -0.44746  -0.44640  -0.44636  -0.44588
 Alpha  occ. eigenvalues --   -0.44578  -0.44014  -0.43992  -0.43565  -0.43554
 Alpha  occ. eigenvalues --   -0.43463  -0.43393  -0.43072  -0.43059  -0.42939
 Alpha  occ. eigenvalues --   -0.42928  -0.42903  -0.42877  -0.42190  -0.42181
 Alpha  occ. eigenvalues --   -0.42061  -0.42052  -0.41989  -0.41977  -0.41584
 Alpha  occ. eigenvalues --   -0.41571  -0.41349  -0.41334  -0.41317  -0.41226
 Alpha  occ. eigenvalues --   -0.41209  -0.41137  -0.41104  -0.40921  -0.40774
 Alpha  occ. eigenvalues --   -0.40772  -0.40723  -0.40700  -0.40622  -0.40607
 Alpha  occ. eigenvalues --   -0.40394  -0.40374  -0.40229  -0.40228  -0.39830
 Alpha  occ. eigenvalues --   -0.39815  -0.39766  -0.39757  -0.39493  -0.39478
 Alpha  occ. eigenvalues --   -0.38764  -0.38517  -0.38515  -0.38146  -0.36434
 Alpha  occ. eigenvalues --   -0.36404  -0.36396  -0.36087  -0.35626  -0.35625
 Alpha  occ. eigenvalues --   -0.35092  -0.35078  -0.35019  -0.35006  -0.34733
 Alpha  occ. eigenvalues --   -0.34730  -0.34684  -0.34682  -0.34047  -0.33939
 Alpha  occ. eigenvalues --   -0.33772  -0.33768  -0.33708  -0.33700  -0.33545
 Alpha  occ. eigenvalues --   -0.33526  -0.33487  -0.33485  -0.33383  -0.33373
 Alpha  occ. eigenvalues --   -0.33345  -0.33331  -0.33235  -0.33217  -0.33193
 Alpha  occ. eigenvalues --   -0.33190  -0.32800  -0.32768  -0.32729  -0.32701
 Alpha  occ. eigenvalues --   -0.32628  -0.32570  -0.32082  -0.31888  -0.31841
 Alpha  occ. eigenvalues --   -0.31776  -0.31713  -0.31673  -0.29331  -0.29208
 Alpha  occ. eigenvalues --   -0.28598  -0.28376  -0.28154  -0.28113  -0.28072
 Alpha  occ. eigenvalues --   -0.28011  -0.27926  -0.27557  -0.27033  -0.26733
 Alpha  occ. eigenvalues --   -0.26322  -0.26279  -0.25284  -0.25272  -0.25136
 Alpha  occ. eigenvalues --   -0.25074  -0.24930  -0.24897  -0.23345  -0.23277
 Alpha  occ. eigenvalues --   -0.23213  -0.23037  -0.21514  -0.21127  -0.16737
 Alpha  occ. eigenvalues --   -0.16431
 Alpha virt. eigenvalues --   -0.09526  -0.09123  -0.03009  -0.02982  -0.01560
 Alpha virt. eigenvalues --   -0.01329  -0.01151  -0.01102   0.02103   0.02203
 Alpha virt. eigenvalues --    0.02802   0.02869   0.03075   0.03231   0.03280

 Mulliken atomic charges:
              1
     1  Si   0.577600
     2  C   -0.076522
     3  C    0.110527
     4  C   -0.161006
     5  H    0.058297
     6  C    0.102873
     7  C   -0.087681
     8  H    0.057726
     9  C   -0.063403
    10  H    0.058541
    11  C   -0.063280
    12  H    0.058428
    13  C   -0.081753
    14  H    0.055815
    15  C    0.104688
    16  C   -0.173278
    17  H    0.065867
    18  C    0.111819
    19  C    0.394153
    20  C   -0.612555
    21  C   -0.287854
    22  H    0.104509
    23  C   -0.306571
    24  H    0.125063
    25  H    0.103203
    26  H    0.093959
    27  C   -0.311957
    28  H    0.095290
    29  H    0.103772
    30  H    0.123481
    31  C   -0.281288
    32  H    0.114440
    33  C   -0.310798
    34  H    0.100245
    35  H    0.103955
    36  H    0.107571
    37  C   -0.304226
    38  H    0.105320
    39  H    0.116263
    40  H    0.092932
    41  C   -0.276983
    42  H    0.116442
    43  C   -0.308131
    44  H    0.105291
    45  H    0.096844
    46  H    0.108740
    47  C   -0.304553
    48  H    0.120749
    49  H    0.104230
    50  H    0.090930
    51  Si   0.577696
    52  C   -0.074298
    53  C    0.117179
    54  C   -0.156260
    55  H    0.058137
    56  C    0.105905
    57  C   -0.085181
    58  H    0.058900
    59  C   -0.061533
    60  H    0.062461
    61  C   -0.061287
    62  H    0.062167
    63  C   -0.080953
    64  H    0.057249
    65  C    0.109487
    66  C   -0.172931
    67  H    0.063887
    68  C    0.119827
    69  C    0.395480
    70  C   -0.613062
    71  C   -0.286974
    72  H    0.105181
    73  C   -0.313210
    74  H    0.124444
    75  H    0.104932
    76  H    0.094725
    77  C   -0.309854
    78  H    0.094235
    79  H    0.105556
    80  H    0.121234
    81  C   -0.272643
    82  H    0.112592
    83  C   -0.311325
    84  H    0.098077
    85  H    0.103129
    86  H    0.108895
    87  C   -0.305228
    88  H    0.106302
    89  H    0.118582
    90  H    0.090690
    91  C   -0.277799
    92  H    0.115136
    93  C   -0.317679
    94  H    0.104653
    95  H    0.103283
    96  H    0.109234
    97  C   -0.312954
    98  H    0.122008
    99  H    0.104034
   100  H    0.100142
   101  Si   0.577306
   102  C   -0.073508
   103  C    0.116016
   104  C   -0.155794
   105  H    0.057832
   106  C    0.106450
   107  C   -0.085494
   108  H    0.059023
   109  C   -0.061217
   110  H    0.062397
   111  C   -0.061683
   112  H    0.062323
   113  C   -0.080750
   114  H    0.057217
   115  C    0.109475
   116  C   -0.172246
   117  H    0.063811
   118  C    0.119356
   119  C    0.396119
   120  C   -0.613379
   121  C   -0.287208
   122  H    0.105139
   123  C   -0.313020
   124  H    0.124340
   125  H    0.104970
   126  H    0.094733
   127  C   -0.309806
   128  H    0.094237
   129  H    0.105586
   130  H    0.121254
   131  C   -0.272634
   132  H    0.112608
   133  C   -0.311425
   134  H    0.098061
   135  H    0.103044
   136  H    0.108977
   137  C   -0.305058
   138  H    0.106319
   139  H    0.118589
   140  H    0.090686
   141  C   -0.278041
   142  H    0.115061
   143  C   -0.317861
   144  H    0.104630
   145  H    0.103298
   146  H    0.109233
   147  C   -0.312541
   148  H    0.121964
   149  H    0.104047
   150  H    0.100198
   151  Si   0.577966
   152  C   -0.077320
   153  C    0.111636
   154  C   -0.161438
   155  H    0.058601
   156  C    0.102328
   157  C   -0.087384
   158  H    0.057625
   159  C   -0.063744
   160  H    0.058619
   161  C   -0.062856
   162  H    0.058260
   163  C   -0.081952
   164  H    0.055837
   165  C    0.104711
   166  C   -0.174008
   167  H    0.065941
   168  C    0.112356
   169  C    0.393464
   170  C   -0.612153
   171  C   -0.287638
   172  H    0.104553
   173  C   -0.306776
   174  H    0.125153
   175  H    0.103180
   176  H    0.093955
   177  C   -0.311992
   178  H    0.095291
   179  H    0.103767
   180  H    0.123447
   181  C   -0.281322
   182  H    0.114435
   183  C   -0.310713
   184  H    0.100262
   185  H    0.104046
   186  H    0.107503
   187  C   -0.304387
   188  H    0.105293
   189  H    0.116252
   190  H    0.092938
   191  C   -0.276725
   192  H    0.116512
   193  C   -0.307960
   194  H    0.105314
   195  H    0.096844
   196  H    0.108739
   197  C   -0.304938
   198  H    0.120789
   199  H    0.104217
   200  H    0.090846
 Sum of Mulliken atomic charges =   0.00000

 Dipole moment (field-independent basis, Debye):
    X=              0.0002    Y=              0.0020    Z=             -0.0017  Tot=              0.0026
 Quadrupole moment (field-independent basis, Debye-Ang):
   XX=           -542.7714   YY=           -558.8320   ZZ=           -530.2537
   XY=            -19.6260   XZ=            -13.1804   YZ=            -21.5201

 Normal termination of Gaussian 09 at Sun Feb  3 04:56:40 2013.
