 Gaussian 09, Revision C.01,
 Gaussian 09:  EM64L-G09RevC.01 23-Sep-2011

 ----------------------------------------------------------------
 #p scf=verytight b3lyp/6-31g(d,p) td(singlets,nstates=25) nosymm
 ----------------------------------------------------------------

 (Enter /apps/gaussian/g09_c01/g09/l101.exe)
 ----------------
 CSD ENTRY k01029
 ----------------
 Charge =  0 Multiplicity = 1

                          Input orientation:
 ---------------------------------------------------------------------
 Center     Atomic      Atomic             Coordinates (Angstroms)
 Number     Number       Type             X           Y           Z
 ---------------------------------------------------------------------
      1         14           0        7.324622    3.494057   13.734540
      2          6           0        7.895200    5.274755    9.669250
      3          6           0        6.902481    6.163429    9.191150
      4          6           0        5.822514    6.575043    9.991839
      5          1           0        5.774883    6.265600   10.887273
      6          6           0        4.827323    7.414731    9.525582
      7          6           0        3.727446    7.826388   10.338336
      8          1           0        3.670457    7.522450   11.237785
      9          6           0        2.765829    8.639283    9.850334
     10          1           0        2.047264    8.907831   10.411066
     11          6           0        2.822281    9.096259    8.507123
     12          1           0        2.134840    9.662127    8.174980
     13          6           0        3.837914    8.738285    7.698377
     14          1           0        3.859170    9.059184    6.804715
     15          6           0        4.886485    7.881647    8.164099
     16          6           0        5.950572    7.501932    7.368337
     17          1           0        5.994204    7.825606    6.475454
     18          6           0        6.972875    6.649754    7.830727
     19          6           0        7.774897    4.744225   10.998113
     20          6           0        7.630909    4.265999   12.095672
     21          6           0        7.499851    1.628423   13.537146
     22          1           0        7.331579    1.214442   14.430715
     23          6           0        6.468229    1.047033   12.553383
     24          1           0        6.554478    1.496460   11.685536
     25          1           0        5.565627    1.187303   12.907355
     26          1           0        6.629925    0.087171   12.440401
     27          6           0        8.919967    1.241712   13.108371
     28          1           0        8.976011    0.268591   13.002933
     29          1           0        9.557995    1.532438   13.792439
     30          1           0        9.133966    1.676045   12.257614
     31          6           0        8.651520    4.139651   14.895107
     32          1           0        9.524416    3.903152   14.468839
     33          6           0        8.665488    3.472364   16.271401
     34          1           0        9.472455    3.743598   16.756263
     35          1           0        8.661897    2.498519   16.163946
     36          1           0        7.873196    3.748188   16.776335
     37          6           0        8.654191    5.662241   15.036047
     38          1           0        7.832916    5.948884   15.487729
     39          1           0        8.699067    6.071954   14.148887
     40          1           0        9.431580    5.939937   15.563164
     41          6           0        5.574349    3.936634   14.242474
     42          1           0        5.023189    3.487993   13.537053
     43          6           0        5.145792    3.230079   15.485239
     44          1           0        5.488258    2.310959   15.474981
     45          1           0        4.166996    3.212523   15.530797
     46          1           0        5.500689    3.701203   16.268019
     47          6           0        5.169171    5.334439   14.121928
     48          1           0        5.539637    5.712011   13.296012
     49          1           0        5.505438    5.838685   14.891831
     50          1           0        4.191306    5.390222   14.097732
     51         14           0        8.624116    8.033907    2.943714
     52          6           0        8.053483    6.252211    7.009000
     53          6           0        9.046202    5.363536    7.487101
     54          6           0       10.125175    4.951977    6.686513
     55          1           0       10.173854    5.262364    5.790982
     56          6           0       11.121360    4.112234    7.152669
     57          6           0       12.221292    3.701576    6.339919
     58          1           0       12.278226    4.004515    5.440466
     59          6           0       13.182908    2.888681    6.827921
     60          1           0       13.901418    2.619134    6.267184
     61          6           0       13.126402    2.430707    8.171128
     62          1           0       13.813898    1.865837    8.503275
     63          6           0       12.110768    2.788681    8.979874
     64          1           0       12.089513    2.467782    9.873536
     65          6           0       11.062198    3.645319    8.514152
     66          6           0        9.997172    4.026086    9.310019
     67          1           0        9.954479    3.701360   10.202797
     68          6           0        8.974815    4.877265    8.847624
     69          6           0        8.173786    6.782740    5.680137
     70          6           0        8.317774    7.260967    4.582578
     71          6           0        8.448832    9.898543    3.141105
     72          1           0        8.616165   10.313576    2.247640
     73          6           0        9.479460   10.479987    4.124968
     74          1           0        9.394205   10.030505    4.992714
     75          1           0       10.383056   10.339662    3.770896
     76          1           0        9.318812   11.440793    4.237854
     77          6           0        7.028715   10.285254    3.569879
     78          1           0        6.972671   11.258375    3.675318
     79          1           0        6.390688    9.994528    2.885811
     80          1           0        6.813723    9.850974    4.420738
     81          6           0        7.297218    7.388313    1.783147
     82          1           0        6.423273    7.623867    2.209513
     83          6           0        7.282255    8.055654    0.406955
     84          1           0        6.475235    7.783422   -0.077912
     85          1           0        7.285792    9.028500    0.514406
     86          1           0        8.075486    7.778777   -0.098085
     87          6           0        7.294546    5.865723    1.642207
     88          1           0        8.115767    5.578082    1.190522
     89          1           0        7.249615    5.455012    2.529364
     90          1           0        6.517157    5.588027    1.115090
     91          6           0       10.374388    7.591330    2.435781
     92          1           0       10.925493    8.038973    3.141197
     93          6           0       10.802945    8.297884    1.193015
     94          1           0       10.459431    9.216061    1.203371
     95          1           0       11.781687    8.314442    1.147454
     96          1           0       10.448049    7.826761    0.410236
     97          6           0       10.778573    6.193579    2.556428
     98          1           0       10.409046    5.814955    3.382238
     99          1           0       10.442252    5.688334    1.786520
    100          1           0       11.757376    6.136743    2.580518
    101         14           0        8.184470   11.196200   13.734500
    102          6           0        8.755050   12.976900    9.669250
    103          6           0        7.762330   13.865600    9.191150
    104          6           0        6.682370   14.277200    9.991840
    105          1           0        6.634730   13.967800   10.887300
    106          6           0        5.687170   15.116900    9.525580
    107          6           0        4.587300   15.528500   10.338300
    108          1           0        4.530310   15.224600   11.237800
    109          6           0        3.625680   16.341400    9.850330
    110          1           0        2.907120   16.610000   10.411100
    111          6           0        3.682130   16.798400    8.507120
    112          1           0        2.994690   17.364300    8.174980
    113          6           0        4.697770   16.440400    7.698380
    114          1           0        4.719020   16.761300    6.804710
    115          6           0        5.746340   15.583800    8.164100
    116          6           0        6.810420   15.204100    7.368340
    117          1           0        6.854060   15.527800    6.475450
    118          6           0        7.832730   14.351900    7.830730
    119          6           0        8.634750   12.446400   10.998100
    120          6           0        8.490760   11.968200   12.095700
    121          6           0        8.359700    9.330580   13.537100
    122          1           0        8.191430    8.916590   14.430700
    123          6           0        7.328080    8.749190   12.553400
    124          1           0        7.414330    9.198610   11.685500
    125          1           0        6.425480    8.889460   12.907400
    126          1           0        7.489780    7.789320   12.440400
    127          6           0        9.779820    8.943860   13.108400
    128          1           0        9.835860    7.970740   13.002900
    129          1           0       10.417800    9.234590   13.792400
    130          1           0        9.993820    9.378200   12.257600
    131          6           0        9.511370   11.841800   14.895100
    132          1           0       10.384300   11.605300   14.468800
    133          6           0        9.525340   11.174500   16.271400
    134          1           0       10.332300   11.445800   16.756300
    135          1           0        9.521750   10.200700   16.163900
    136          1           0        8.733050   11.450300   16.776300
    137          6           0        9.514040   13.364400   15.036000
    138          1           0        8.692770   13.651000   15.487700
    139          1           0        9.558920   13.774100   14.148900
    140          1           0       10.291400   13.642100   15.563200
    141          6           0        6.434200   11.638800   14.242500
    142          1           0        5.883040   11.190100   13.537100
    143          6           0        6.005640   10.932200   15.485200
    144          1           0        6.348110   10.013100   15.475000
    145          1           0        5.026850   10.914700   15.530800
    146          1           0        6.360540   11.403400   16.268000
    147          6           0        6.029020   13.036600   14.121900
    148          1           0        6.399490   13.414200   13.296000
    149          1           0        6.365290   13.540800   14.891800
    150          1           0        5.051160   13.092400   14.097700
    151         14           0        9.483970   15.736100    2.943710
    152          6           0        8.913330   13.954400    7.009000
    153          6           0        9.906050   13.065700    7.487100
    154          6           0       10.985000   12.654100    6.686510
    155          1           0       11.033700   12.964500    5.790980
    156          6           0       11.981200   11.814400    7.152670
    157          6           0       13.081100   11.403700    6.339920
    158          1           0       13.138100   11.706700    5.440470
    159          6           0       14.042800   10.590800    6.827920
    160          1           0       14.761300   10.321300    6.267180
    161          6           0       13.986300   10.132900    8.171130
    162          1           0       14.673700    9.567990    8.503270
    163          6           0       12.970600   10.490800    8.979870
    164          1           0       12.949400   10.169900    9.873540
    165          6           0       11.922000   11.347500    8.514150
    166          6           0       10.857000   11.728200    9.310020
    167          1           0       10.814300   11.403500   10.202800
    168          6           0        9.834670   12.579400    8.847620
    169          6           0        9.033640   14.484900    5.680140
    170          6           0        9.177630   14.963100    4.582580
    171          6           0        9.308680   17.600700    3.141100
    172          1           0        9.476020   18.015700    2.247640
    173          6           0       10.339300   18.182100    4.124970
    174          1           0       10.254100   17.732700    4.992710
    175          1           0       11.242900   18.041800    3.770900
    176          1           0       10.178700   19.142900    4.237850
    177          6           0        7.888570   17.987400    3.569880
    178          1           0        7.832520   18.960500    3.675320
    179          1           0        7.250540   17.696700    2.885810
    180          1           0        7.673570   17.553100    4.420740
    181          6           0        8.157070   15.090500    1.783150
    182          1           0        7.283120   15.326000    2.209510
    183          6           0        8.142110   15.757800    0.406955
    184          1           0        7.335090   15.485600   -0.077912
    185          1           0        8.145640   16.730700    0.514406
    186          1           0        8.935340   15.480900   -0.098085
    187          6           0        8.154400   13.567900    1.642210
    188          1           0        8.975620   13.280200    1.190520
    189          1           0        8.109470   13.157200    2.529360
    190          1           0        7.377010   13.290200    1.115090
    191          6           0       11.234200   15.293500    2.435780
    192          1           0       11.785300   15.741100    3.141200
    193          6           0       11.662800   16.000000    1.193020
    194          1           0       11.319300   16.918200    1.203370
    195          1           0       12.641500   16.016600    1.147450
    196          1           0       11.307900   15.528900    0.410236
    197          6           0       11.638400   13.895700    2.556430
    198          1           0       11.268900   13.517100    3.382240
    199          1           0       11.302100   13.390500    1.786520
    200          1           0       12.617200   13.838900    2.580520
 ---------------------------------------------------------------------

 SCF Done:  E(RB3LYP) =  -4575.30623349     A.U. after   16 cycles

 Excitation energies and oscillator strengths:

 Excited state symmetry could not be determined.
 Excited State   1:      Singlet-?Sym    1.6436 eV  754.34 nm  f=0.0000  <S**2>=0.000
     345 -> 347       -0.27576
     345 -> 348        0.39268
     346 -> 347        0.45517
     346 -> 348       -0.24949
 This state for optimization and/or second-order correction.
 Total Energy, E(TD-HF/TD-KS) =  -4575.24583198
 Copying the excited state density for this state as the 1-particle RhoCI density.

 Excited state symmetry could not be determined.
 Excited State   2:      Singlet-?Sym    1.6439 eV  754.22 nm  f=0.0000  <S**2>=0.000
     345 -> 347        0.41039
     345 -> 348        0.27744
     346 -> 347        0.24949
     346 -> 348        0.43821

 Excited state symmetry could not be determined.
 Excited State   3:      Singlet-?Sym    1.7314 eV  716.10 nm  f=0.0000  <S**2>=0.000
     345 -> 348        0.52082
     346 -> 347       -0.48280

 Excited state symmetry could not be determined.
 Excited State   4:      Singlet-?Sym    1.7658 eV  702.14 nm  f=0.2947  <S**2>=0.000
     345 -> 347        0.50734
     346 -> 348       -0.49774

 Excited state symmetry could not be determined.
 Excited State   5:      Singlet-?Sym    2.7575 eV  449.63 nm  f=0.0004  <S**2>=0.000
     343 -> 347       -0.12602
     343 -> 348        0.47386
     344 -> 347        0.47354
     345 -> 349        0.10250

 Excited state symmetry could not be determined.
 Excited State   6:      Singlet-?Sym    2.7578 eV  449.58 nm  f=0.0000  <S**2>=0.000
     343 -> 347        0.47439
     344 -> 348        0.48536
     345 -> 350        0.10124

 Excited state symmetry could not be determined.
 Excited State   7:      Singlet-?Sym    2.9602 eV  418.83 nm  f=0.0000  <S**2>=0.000
     343 -> 347        0.31646
     343 -> 348       -0.28328
     344 -> 347        0.41183
     344 -> 348       -0.38343

 Excited state symmetry could not be determined.
 Excited State   8:      Singlet-?Sym    2.9608 eV  418.75 nm  f=0.0000  <S**2>=0.000
     343 -> 347        0.37487
     343 -> 348        0.42123
     344 -> 347       -0.28742
     344 -> 348       -0.31054

 Excited state symmetry could not be determined.
 Excited State   9:      Singlet-?Sym    3.1858 eV  389.18 nm  f=0.0000  <S**2>=0.000
     339 -> 348        0.19395
     340 -> 347       -0.19081
     341 -> 348        0.39258
     342 -> 347        0.40931
     345 -> 351        0.16452
     345 -> 353       -0.13154
     346 -> 352        0.16687
     346 -> 354       -0.12941

 Excited state symmetry could not be determined.
 Excited State  10:      Singlet-?Sym    3.1926 eV  388.35 nm  f=0.0970  <S**2>=0.000
     339 -> 347        0.16793
     340 -> 348       -0.16839
     341 -> 347        0.40108
     342 -> 348        0.40677
     345 -> 352       -0.17807
     345 -> 354        0.11920
     346 -> 351       -0.17801
     346 -> 353        0.12238

 Excited state symmetry could not be determined.
 Excited State  11:      Singlet-?Sym    3.1951 eV  388.04 nm  f=0.0000  <S**2>=0.000
     339 -> 348       -0.33618
     340 -> 347        0.33833
     341 -> 348        0.23566
     342 -> 347        0.23281
     345 -> 353        0.25903
     346 -> 354        0.26063

 Excited state symmetry could not be determined.
 Excited State  12:      Singlet-?Sym    3.1981 eV  387.68 nm  f=0.0878  <S**2>=0.000
     339 -> 347       -0.35025
     340 -> 348        0.35222
     341 -> 347        0.20636
     342 -> 348        0.19794
     345 -> 354       -0.27374
     346 -> 353       -0.27459

 Excited state symmetry could not be determined.
 Excited State  13:      Singlet-?Sym    3.2335 eV  383.43 nm  f=0.0003  <S**2>=0.000
     343 -> 347        0.12020
     344 -> 348        0.11107
     345 -> 349        0.34959
     345 -> 350       -0.31614
     346 -> 349        0.43800
     346 -> 350        0.20860

 Excited state symmetry could not be determined.
 Excited State  14:      Singlet-?Sym    3.2340 eV  383.38 nm  f=0.0059  <S**2>=0.000
     343 -> 348        0.11062
     344 -> 347        0.11366
     345 -> 349       -0.31358
     345 -> 350       -0.33782
     346 -> 349       -0.19720
     346 -> 350        0.44002

 Excited state symmetry could not be determined.
 Excited State  15:      Singlet-?Sym    3.3593 eV  369.08 nm  f=0.0000  <S**2>=0.000
     345 -> 349        0.49320
     346 -> 349       -0.48776

 Excited state symmetry could not be determined.
 Excited State  16:      Singlet-?Sym    3.3594 eV  369.07 nm  f=0.0000  <S**2>=0.000
     345 -> 350        0.50269
     346 -> 350        0.47782

 Excited state symmetry could not be determined.
 Excited State  17:      Singlet-?Sym    3.4068 eV  363.94 nm  f=0.0000  <S**2>=0.000
     341 -> 347       -0.33754
     341 -> 348       -0.34422
     342 -> 347        0.32769
     342 -> 348        0.39068

 Excited state symmetry could not be determined.
 Excited State  18:      Singlet-?Sym    3.4071 eV  363.90 nm  f=0.0000  <S**2>=0.000
     341 -> 347        0.36664
     341 -> 348       -0.36187
     342 -> 347        0.36415
     342 -> 348       -0.30760

 Excited state symmetry could not be determined.
 Excited State  19:      Singlet-?Sym    3.4964 eV  354.60 nm  f=0.0000  <S**2>=0.000
     339 -> 347       -0.27966
     339 -> 348        0.25697
     340 -> 347        0.44004
     340 -> 348       -0.40099

 Excited state symmetry could not be determined.
 Excited State  20:      Singlet-?Sym    3.4966 eV  354.59 nm  f=0.0000  <S**2>=0.000
     339 -> 347        0.40039
     339 -> 348        0.44035
     340 -> 347        0.25452
     340 -> 348        0.28226

 Excited state symmetry could not be determined.
 Excited State  21:      Singlet-?Sym    3.5941 eV  344.97 nm  f=0.0023  <S**2>=0.000
     327 -> 347        0.10994
     335 -> 347        0.17165
     335 -> 348       -0.12935
     336 -> 347       -0.23028
     336 -> 348        0.24520
     337 -> 347        0.20238
     337 -> 348       -0.22343
     338 -> 347        0.36088
     338 -> 348       -0.28016

 Excited state symmetry could not be determined.
 Excited State  22:      Singlet-?Sym    3.5945 eV  344.92 nm  f=0.0033  <S**2>=0.000
     328 -> 347        0.10101
     328 -> 348        0.10580
     335 -> 347        0.14153
     335 -> 348        0.18154
     336 -> 347        0.24487
     336 -> 348        0.22445
     337 -> 347       -0.26305
     337 -> 348       -0.24877
     338 -> 347        0.24449
     338 -> 348        0.32378

 Excited state symmetry could not be determined.
 Excited State  23:      Singlet-?Sym    3.6649 eV  338.30 nm  f=0.0000  <S**2>=0.000
     333 -> 347        0.14643
     334 -> 348        0.15581
     341 -> 348       -0.16330
     342 -> 347       -0.15932
     345 -> 351        0.43298
     346 -> 352        0.43076

 Excited state symmetry could not be determined.
 Excited State  24:      Singlet-?Sym    3.6693 eV  337.90 nm  f=0.0111  <S**2>=0.000
     333 -> 348        0.26779
     334 -> 347        0.39623
     335 -> 348       -0.36802
     336 -> 347       -0.12808
     337 -> 347       -0.23000
     338 -> 348        0.16170

 Excited state symmetry could not be determined.
 Excited State  25:      Singlet-?Sym    3.6707 eV  337.77 nm  f=0.0000  <S**2>=0.000
     333 -> 347       -0.24165
     334 -> 348       -0.37044
     335 -> 347        0.38771
     336 -> 348        0.15835
     337 -> 348        0.22711
     338 -> 347       -0.15050
     345 -> 351        0.10418
     346 -> 352        0.10479

 Alpha  occ. eigenvalues --  -66.10431 -66.10428 -66.10064 -66.10061 -10.21285
 Alpha  occ. eigenvalues --  -10.21280 -10.21243 -10.21237 -10.20022 -10.20014
 Alpha  occ. eigenvalues --  -10.19973 -10.19967 -10.19944 -10.19939 -10.19935
 Alpha  occ. eigenvalues --  -10.19929 -10.19106 -10.19098 -10.19037 -10.19032
 Alpha  occ. eigenvalues --  -10.19020 -10.19014 -10.18978 -10.18970 -10.18128
 Alpha  occ. eigenvalues --  -10.18126 -10.17874 -10.17871 -10.17107 -10.17102
 Alpha  occ. eigenvalues --  -10.17100 -10.17100 -10.17078 -10.17078 -10.17043
 Alpha  occ. eigenvalues --  -10.17039 -10.17038 -10.17037 -10.17022 -10.17021
 Alpha  occ. eigenvalues --  -10.17013 -10.17011 -10.16989 -10.16988 -10.16969
 Alpha  occ. eigenvalues --  -10.16966 -10.16941 -10.16940 -10.16923 -10.16920
 Alpha  occ. eigenvalues --  -10.16839 -10.16839 -10.15521 -10.15518 -10.15318
 Alpha  occ. eigenvalues --  -10.15317 -10.15204 -10.15203 -10.14879 -10.14871
 Alpha  occ. eigenvalues --  -10.14658 -10.14657 -10.14520 -10.14512 -10.14333
 Alpha  occ. eigenvalues --  -10.14328 -10.14031 -10.14026 -10.13525 -10.13517
 Alpha  occ. eigenvalues --  -10.13483 -10.13479 -10.13303 -10.13299 -10.13235
 Alpha  occ. eigenvalues --  -10.13231 -10.13210 -10.13203 -10.13174 -10.13158
 Alpha  occ. eigenvalues --  -10.13093 -10.13086 -10.12937 -10.12925 -10.12714
 Alpha  occ. eigenvalues --  -10.12710 -10.12708 -10.12702 -10.12691 -10.12679
 Alpha  occ. eigenvalues --  -10.12400 -10.12385  -5.25133  -5.25129  -5.24768
 Alpha  occ. eigenvalues --   -5.24765  -3.61138  -3.61134  -3.60927  -3.60923
 Alpha  occ. eigenvalues --   -3.60904  -3.60900  -3.60776  -3.60772  -3.60563
 Alpha  occ. eigenvalues --   -3.60560  -3.60536  -3.60532  -0.89129  -0.89129
 Alpha  occ. eigenvalues --   -0.87287  -0.87287  -0.85404  -0.85404  -0.82193
 Alpha  occ. eigenvalues --   -0.82193  -0.81570  -0.81564  -0.81192  -0.81188
 Alpha  occ. eigenvalues --   -0.80900  -0.80897  -0.79435  -0.79433  -0.79040
 Alpha  occ. eigenvalues --   -0.79039  -0.78750  -0.78745  -0.78651  -0.78650
 Alpha  occ. eigenvalues --   -0.78275  -0.78268  -0.78199  -0.78187  -0.77074
 Alpha  occ. eigenvalues --   -0.77072  -0.74004  -0.73999  -0.73972  -0.73971
 Alpha  occ. eigenvalues --   -0.73308  -0.73307  -0.72432  -0.72430  -0.71735
 Alpha  occ. eigenvalues --   -0.71734  -0.71480  -0.71479  -0.70869  -0.70865
 Alpha  occ. eigenvalues --   -0.70595  -0.70592  -0.70475  -0.70470  -0.69983
 Alpha  occ. eigenvalues --   -0.69978  -0.69175  -0.69171  -0.67524  -0.67522
 Alpha  occ. eigenvalues --   -0.63074  -0.63038  -0.62958  -0.62957  -0.62622
 Alpha  occ. eigenvalues --   -0.62622  -0.61805  -0.61791  -0.61422  -0.61388
 Alpha  occ. eigenvalues --   -0.61216  -0.61204  -0.60777  -0.60756  -0.59117
 Alpha  occ. eigenvalues --   -0.59110  -0.59017  -0.59010  -0.58777  -0.58774
 Alpha  occ. eigenvalues --   -0.58608  -0.58592  -0.58508  -0.58492  -0.53962
 Alpha  occ. eigenvalues --   -0.53961  -0.53590  -0.53590  -0.53155  -0.53152
 Alpha  occ. eigenvalues --   -0.52447  -0.52435  -0.52338  -0.52320  -0.50647
 Alpha  occ. eigenvalues --   -0.50602  -0.49673  -0.49660  -0.48467  -0.48466
 Alpha  occ. eigenvalues --   -0.48091  -0.48086  -0.47648  -0.47593  -0.47284
 Alpha  occ. eigenvalues --   -0.47210  -0.46982  -0.46940  -0.46357  -0.46330
 Alpha  occ. eigenvalues --   -0.45944  -0.45941  -0.45569  -0.45544  -0.45223
 Alpha  occ. eigenvalues --   -0.45220  -0.45207  -0.45204  -0.44975  -0.44973
 Alpha  occ. eigenvalues --   -0.44680  -0.44656  -0.44649  -0.44624  -0.44241
 Alpha  occ. eigenvalues --   -0.44128  -0.43983  -0.43846  -0.43555  -0.43535
 Alpha  occ. eigenvalues --   -0.43363  -0.43333  -0.43261  -0.43260  -0.43020
 Alpha  occ. eigenvalues --   -0.43012  -0.42726  -0.42705  -0.42197  -0.42190
 Alpha  occ. eigenvalues --   -0.42031  -0.42024  -0.41688  -0.41679  -0.41456
 Alpha  occ. eigenvalues --   -0.41442  -0.41243  -0.41231  -0.41147  -0.41134
 Alpha  occ. eigenvalues --   -0.41113  -0.41112  -0.40800  -0.40755  -0.40747
 Alpha  occ. eigenvalues --   -0.40734  -0.40675  -0.40645  -0.40229  -0.40210
 Alpha  occ. eigenvalues --   -0.40207  -0.40203  -0.39876  -0.39876  -0.39743
 Alpha  occ. eigenvalues --   -0.39729  -0.39505  -0.39488  -0.39413  -0.39399
 Alpha  occ. eigenvalues --   -0.38634  -0.38630  -0.38607  -0.38605  -0.36505
 Alpha  occ. eigenvalues --   -0.36497  -0.36409  -0.36403  -0.35767  -0.35766
 Alpha  occ. eigenvalues --   -0.35060  -0.35046  -0.34789  -0.34775  -0.34668
 Alpha  occ. eigenvalues --   -0.34663  -0.34255  -0.34236  -0.33980  -0.33915
 Alpha  occ. eigenvalues --   -0.33728  -0.33723  -0.33518  -0.33511  -0.33476
 Alpha  occ. eigenvalues --   -0.33471  -0.33336  -0.33322  -0.33299  -0.33248
 Alpha  occ. eigenvalues --   -0.33172  -0.33136  -0.33047  -0.33042  -0.32848
 Alpha  occ. eigenvalues --   -0.32838  -0.32791  -0.32785  -0.32676  -0.32656
 Alpha  occ. eigenvalues --   -0.32324  -0.32299  -0.32068  -0.32068  -0.31800
 Alpha  occ. eigenvalues --   -0.31782  -0.31450  -0.31418  -0.29294  -0.29255
 Alpha  occ. eigenvalues --   -0.28459  -0.28452  -0.28105  -0.28095  -0.28026
 Alpha  occ. eigenvalues --   -0.27989  -0.27770  -0.27765  -0.26887  -0.26826
 Alpha  occ. eigenvalues --   -0.26171  -0.26114  -0.25255  -0.25147  -0.24939
 Alpha  occ. eigenvalues --   -0.24876  -0.24764  -0.24758  -0.23461  -0.23461
 Alpha  occ. eigenvalues --   -0.23113  -0.23103  -0.21478  -0.21476  -0.16661
 Alpha  occ. eigenvalues --   -0.16645
 Alpha virt. eigenvalues --   -0.09389  -0.09382  -0.03112  -0.03111  -0.01517
 Alpha virt. eigenvalues --   -0.01500  -0.01242  -0.01241   0.02089   0.02110
 Alpha virt. eigenvalues --    0.02893   0.02919   0.03208   0.03216   0.03385

 Mulliken atomic charges:
              1
     1  Si   0.579852
     2  C   -0.077588
     3  C    0.112614
     4  C   -0.155665
     5  H    0.058448
     6  C    0.103488
     7  C   -0.087295
     8  H    0.057091
     9  C   -0.062525
    10  H    0.057842
    11  C   -0.062011
    12  H    0.059256
    13  C   -0.078925
    14  H    0.057833
    15  C    0.104583
    16  C   -0.167112
    17  H    0.068144
    18  C    0.113320
    19  C    0.398280
    20  C   -0.618117
    21  C   -0.287348
    22  H    0.104566
    23  C   -0.306716
    24  H    0.124602
    25  H    0.103184
    26  H    0.093760
    27  C   -0.309777
    28  H    0.094583
    29  H    0.104382
    30  H    0.121958
    31  C   -0.275075
    32  H    0.112853
    33  C   -0.311260
    34  H    0.097746
    35  H    0.104136
    36  H    0.109000
    37  C   -0.314062
    38  H    0.105940
    39  H    0.128048
    40  H    0.091317
    41  C   -0.277476
    42  H    0.116348
    43  C   -0.308082
    44  H    0.105367
    45  H    0.096658
    46  H    0.108538
    47  C   -0.306613
    48  H    0.123236
    49  H    0.103384
    50  H    0.090778
    51  Si   0.577394
    52  C   -0.073984
    53  C    0.112212
    54  C   -0.156873
    55  H    0.060329
    56  C    0.102296
    57  C   -0.086424
    58  H    0.058470
    59  C   -0.064037
    60  H    0.058412
    61  C   -0.062640
    62  H    0.058059
    63  C   -0.081825
    64  H    0.055689
    65  C    0.105536
    66  C   -0.172367
    67  H    0.065740
    68  C    0.114960
    69  C    0.393270
    70  C   -0.607166
    71  C   -0.292479
    72  H    0.106204
    73  C   -0.315316
    74  H    0.127888
    75  H    0.099119
    76  H    0.104259
    77  C   -0.312053
    78  H    0.100346
    79  H    0.101653
    80  H    0.120815
    81  C   -0.271845
    82  H    0.112750
    83  C   -0.311510
    84  H    0.097024
    85  H    0.104472
    86  H    0.108129
    87  C   -0.305274
    88  H    0.105637
    89  H    0.117547
    90  H    0.089961
    91  C   -0.277314
    92  H    0.117330
    93  C   -0.308147
    94  H    0.105909
    95  H    0.094948
    96  H    0.108179
    97  C   -0.304629
    98  H    0.120553
    99  H    0.103984
   100  H    0.089303
   101  Si   0.577014
   102  C   -0.073227
   103  C    0.111136
   104  C   -0.156461
   105  H    0.060031
   106  C    0.102860
   107  C   -0.086735
   108  H    0.058585
   109  C   -0.063715
   110  H    0.058344
   111  C   -0.063068
   112  H    0.058237
   113  C   -0.081632
   114  H    0.055670
   115  C    0.105526
   116  C   -0.171628
   117  H    0.065671
   118  C    0.114381
   119  C    0.393911
   120  C   -0.607503
   121  C   -0.292702
   122  H    0.106170
   123  C   -0.315095
   124  H    0.127794
   125  H    0.099170
   126  H    0.104228
   127  C   -0.312001
   128  H    0.100335
   129  H    0.101684
   130  H    0.120837
   131  C   -0.271851
   132  H    0.112765
   133  C   -0.311604
   134  H    0.097008
   135  H    0.104391
   136  H    0.108211
   137  C   -0.305097
   138  H    0.105657
   139  H    0.117555
   140  H    0.089957
   141  C   -0.277575
   142  H    0.117261
   143  C   -0.308321
   144  H    0.105891
   145  H    0.094945
   146  H    0.108173
   147  C   -0.304247
   148  H    0.120513
   149  H    0.104000
   150  H    0.089392
   151  Si   0.580228
   152  C   -0.078335
   153  C    0.113666
   154  C   -0.156060
   155  H    0.058736
   156  C    0.102953
   157  C   -0.087065
   158  H    0.057007
   159  C   -0.062846
   160  H    0.057923
   161  C   -0.061555
   162  H    0.059068
   163  C   -0.079145
   164  H    0.057858
   165  C    0.104600
   166  C   -0.167849
   167  H    0.068233
   168  C    0.113898
   169  C    0.397618
   170  C   -0.617765
   171  C   -0.287115
   172  H    0.104613
   173  C   -0.306909
   174  H    0.124694
   175  H    0.103156
   176  H    0.093755
   177  C   -0.309811
   178  H    0.094583
   179  H    0.104361
   180  H    0.121927
   181  C   -0.275068
   182  H    0.112833
   183  C   -0.311160
   184  H    0.097761
   185  H    0.104216
   186  H    0.108924
   187  C   -0.314273
   188  H    0.105922
   189  H    0.128043
   190  H    0.091319
   191  C   -0.277224
   192  H    0.116420
   193  C   -0.307898
   194  H    0.105382
   195  H    0.096665
   196  H    0.108537
   197  C   -0.307003
   198  H    0.123281
   199  H    0.103378
   200  H    0.090697
 Sum of Mulliken atomic charges =   0.00000

 Dipole moment (field-independent basis, Debye):
    X=              0.0003    Y=              0.0030    Z=             -0.0011  Tot=              0.0032
 Quadrupole moment (field-independent basis, Debye-Ang):
   XX=           -538.1146   YY=           -560.4954   ZZ=           -531.5602
   XY=            -20.2791   XZ=            -13.0529   YZ=            -22.9184

 Normal termination of Gaussian 09 at Tue Feb  5 04:11:11 2013.
