 Gaussian 09, Revision C.01,
 Gaussian 09:  EM64L-G09RevC.01 23-Sep-2011

 ----------------------------------------------------------------
 #p scf=verytight b3lyp/6-31g(d,p) td(singlets,nstates=25) nosymm
 ----------------------------------------------------------------

 (Enter /apps/gaussian/g09_c01/g09/l101.exe)
 ----------------
 CSD ENTRY k01029
 ----------------
 Charge =  0 Multiplicity = 1

                          Input orientation:
 ---------------------------------------------------------------------
 Center     Atomic      Atomic             Coordinates (Angstroms)
 Number     Number       Type             X           Y           Z
 ---------------------------------------------------------------------
      1         14           0        7.324622    3.494057   13.734540
      2          6           0        7.895200    5.274755    9.669250
      3          6           0        6.902481    6.163429    9.191150
      4          6           0        5.822514    6.575043    9.991839
      5          1           0        5.774883    6.265600   10.887273
      6          6           0        4.827323    7.414731    9.525582
      7          6           0        3.727446    7.826388   10.338336
      8          1           0        3.670457    7.522450   11.237785
      9          6           0        2.765829    8.639283    9.850334
     10          1           0        2.047264    8.907831   10.411066
     11          6           0        2.822281    9.096259    8.507123
     12          1           0        2.134840    9.662127    8.174980
     13          6           0        3.837914    8.738285    7.698377
     14          1           0        3.859170    9.059184    6.804715
     15          6           0        4.886485    7.881647    8.164099
     16          6           0        5.950572    7.501932    7.368337
     17          1           0        5.994204    7.825606    6.475454
     18          6           0        6.972875    6.649754    7.830727
     19          6           0        7.774897    4.744225   10.998113
     20          6           0        7.630909    4.265999   12.095672
     21          6           0        7.499851    1.628423   13.537146
     22          1           0        7.331579    1.214442   14.430715
     23          6           0        6.468229    1.047033   12.553383
     24          1           0        6.554478    1.496460   11.685536
     25          1           0        5.565627    1.187303   12.907355
     26          1           0        6.629925    0.087171   12.440401
     27          6           0        8.919967    1.241712   13.108371
     28          1           0        8.976011    0.268591   13.002933
     29          1           0        9.557995    1.532438   13.792439
     30          1           0        9.133966    1.676045   12.257614
     31          6           0        8.651520    4.139651   14.895107
     32          1           0        9.524416    3.903152   14.468839
     33          6           0        8.665488    3.472364   16.271401
     34          1           0        9.472455    3.743598   16.756263
     35          1           0        8.661897    2.498519   16.163946
     36          1           0        7.873196    3.748188   16.776335
     37          6           0        8.654191    5.662241   15.036047
     38          1           0        7.832916    5.948884   15.487729
     39          1           0        8.699067    6.071954   14.148887
     40          1           0        9.431580    5.939937   15.563164
     41          6           0        5.574349    3.936634   14.242474
     42          1           0        5.023189    3.487993   13.537053
     43          6           0        5.145792    3.230079   15.485239
     44          1           0        5.488258    2.310959   15.474981
     45          1           0        4.166996    3.212523   15.530797
     46          1           0        5.500689    3.701203   16.268019
     47          6           0        5.169171    5.334439   14.121928
     48          1           0        5.539637    5.712011   13.296012
     49          1           0        5.505438    5.838685   14.891831
     50          1           0        4.191306    5.390222   14.097732
     51         14           0        8.624116    8.033907    2.943714
     52          6           0        8.053483    6.252211    7.009000
     53          6           0        9.046202    5.363536    7.487101
     54          6           0       10.125175    4.951977    6.686513
     55          1           0       10.173854    5.262364    5.790982
     56          6           0       11.121360    4.112234    7.152669
     57          6           0       12.221292    3.701576    6.339919
     58          1           0       12.278226    4.004515    5.440466
     59          6           0       13.182908    2.888681    6.827921
     60          1           0       13.901418    2.619134    6.267184
     61          6           0       13.126402    2.430707    8.171128
     62          1           0       13.813898    1.865837    8.503275
     63          6           0       12.110768    2.788681    8.979874
     64          1           0       12.089513    2.467782    9.873536
     65          6           0       11.062198    3.645319    8.514152
     66          6           0        9.997172    4.026086    9.310019
     67          1           0        9.954479    3.701360   10.202797
     68          6           0        8.974815    4.877265    8.847624
     69          6           0        8.173786    6.782740    5.680137
     70          6           0        8.317774    7.260967    4.582578
     71          6           0        8.448832    9.898543    3.141105
     72          1           0        8.616165   10.313576    2.247640
     73          6           0        9.479460   10.479987    4.124968
     74          1           0        9.394205   10.030505    4.992714
     75          1           0       10.383056   10.339662    3.770896
     76          1           0        9.318812   11.440793    4.237854
     77          6           0        7.028715   10.285254    3.569879
     78          1           0        6.972671   11.258375    3.675318
     79          1           0        6.390688    9.994528    2.885811
     80          1           0        6.813723    9.850974    4.420738
     81          6           0        7.297218    7.388313    1.783147
     82          1           0        6.423273    7.623867    2.209513
     83          6           0        7.282255    8.055654    0.406955
     84          1           0        6.475235    7.783422   -0.077912
     85          1           0        7.285792    9.028500    0.514406
     86          1           0        8.075486    7.778777   -0.098085
     87          6           0        7.294546    5.865723    1.642207
     88          1           0        8.115767    5.578082    1.190522
     89          1           0        7.249615    5.455012    2.529364
     90          1           0        6.517157    5.588027    1.115090
     91          6           0       10.374388    7.591330    2.435781
     92          1           0       10.925493    8.038973    3.141197
     93          6           0       10.802945    8.297884    1.193015
     94          1           0       10.459431    9.216061    1.203371
     95          1           0       11.781687    8.314442    1.147454
     96          1           0       10.448049    7.826761    0.410236
     97          6           0       10.778573    6.193579    2.556428
     98          1           0       10.409046    5.814955    3.382238
     99          1           0       10.442252    5.688334    1.786520
    100          1           0       11.757376    6.136743    2.580518
    101         14           0       10.643800    3.370330   29.932500
    102          6           0       11.214400    5.151030   25.867200
    103          6           0       10.221700    6.039700   25.389100
    104          6           0        9.141680    6.451310   26.189800
    105          1           0        9.094050    6.141870   27.085200
    106          6           0        8.146490    7.291000   25.723500
    107          6           0        7.046610    7.702660   26.536300
    108          1           0        6.989630    7.398720   27.435700
    109          6           0        6.085000    8.515550   26.048300
    110          1           0        5.366430    8.784100   26.609000
    111          6           0        6.141450    8.972530   24.705100
    112          1           0        5.454010    9.538400   24.372900
    113          6           0        7.157080    8.614560   23.896300
    114          1           0        7.178340    8.935460   23.002700
    115          6           0        8.205650    7.757920   24.362100
    116          6           0        9.269740    7.378200   23.566300
    117          1           0        9.313370    7.701880   22.673400
    118          6           0       10.292000    6.526030   24.028700
    119          6           0       11.094100    4.620500   27.196100
    120          6           0       10.950100    4.142270   28.293600
    121          6           0       10.819000    1.504690   29.735100
    122          1           0       10.650700    1.090710   30.628700
    123          6           0        9.787400    0.923304   28.751300
    124          1           0        9.873650    1.372730   27.883500
    125          1           0        8.884800    1.063580   29.105300
    126          1           0        9.949090   -0.036557   28.638400
    127          6           0       12.239100    1.117980   29.306300
    128          1           0       12.295200    0.144863   29.200900
    129          1           0       12.877200    1.408710   29.990400
    130          1           0       12.453100    1.552320   28.455600
    131          6           0       11.970700    4.015920   31.093100
    132          1           0       12.843600    3.779420   30.666800
    133          6           0       11.984700    3.348640   32.469400
    134          1           0       12.791600    3.619870   32.954200
    135          1           0       11.981100    2.374790   32.361900
    136          1           0       11.192400    3.624460   32.974300
    137          6           0       11.973400    5.538510   31.234000
    138          1           0       11.152100    5.825160   31.685700
    139          1           0       12.018200    5.948230   30.346900
    140          1           0       12.750700    5.816210   31.761100
    141          6           0        8.893520    3.812910   30.440400
    142          1           0        8.342360    3.364260   29.735000
    143          6           0        8.464960    3.106350   31.683200
    144          1           0        8.807430    2.187230   31.672900
    145          1           0        7.486160    3.088800   31.728800
    146          1           0        8.819860    3.577470   32.466000
    147          6           0        8.488340    5.210710   30.319900
    148          1           0        8.858810    5.588280   29.494000
    149          1           0        8.824610    5.714960   31.089800
    150          1           0        7.510480    5.266490   30.295700
    151         14           0       11.943300    7.910180   19.141700
    152          6           0       11.372700    6.128480   23.207000
    153          6           0       12.365400    5.239810   23.685100
    154          6           0       13.444300    4.828250   22.884500
    155          1           0       13.493000    5.138640   21.988900
    156          6           0       14.440500    3.988510   23.350600
    157          6           0       15.540500    3.577850   22.537900
    158          1           0       15.597400    3.880790   21.638400
    159          6           0       16.502100    2.764950   23.025900
    160          1           0       17.220600    2.495410   22.465100
    161          6           0       16.445600    2.306980   24.369100
    162          1           0       17.133100    1.742110   24.701200
    163          6           0       15.429900    2.664950   25.177800
    164          1           0       15.408700    2.344050   26.071500
    165          6           0       14.381400    3.521590   24.712100
    166          6           0       13.316300    3.902360   25.508000
    167          1           0       13.273600    3.577630   26.400800
    168          6           0       12.294000    4.753540   25.045600
    169          6           0       11.493000    6.659010   21.878100
    170          6           0       11.636900    7.137240   20.780500
    171          6           0       11.768000    9.774810   19.339100
    172          1           0       11.935300   10.189800   18.445600
    173          6           0       12.798600   10.356300   20.322900
    174          1           0       12.713400    9.906780   21.190700
    175          1           0       13.702200   10.215900   19.968900
    176          1           0       12.638000   11.317100   20.435800
    177          6           0       10.347900   10.161500   19.767800
    178          1           0       10.291800   11.134600   19.873300
    179          1           0        9.709860    9.870800   19.083800
    180          1           0       10.132900    9.727250   20.618700
    181          6           0       10.616400    7.264580   17.981100
    182          1           0        9.742440    7.500140   18.407500
    183          6           0       10.601400    7.931930   16.604900
    184          1           0        9.794400    7.659690   16.120100
    185          1           0       10.605000    8.904770   16.712400
    186          1           0       11.394700    7.655050   16.099900
    187          6           0       10.613700    5.741990   17.840200
    188          1           0       11.434900    5.454350   17.388500
    189          1           0       10.568800    5.331280   18.727300
    190          1           0        9.836330    5.464300   17.313100
    191          6           0       13.693600    7.467600   18.633700
    192          1           0       14.244700    7.915240   19.339200
    193          6           0       14.122100    8.174160   17.391000
    194          1           0       13.778600    9.092330   17.401300
    195          1           0       15.100900    8.190710   17.345400
    196          1           0       13.767200    7.703030   16.608200
    197          6           0       14.097700    6.069850   18.754400
    198          1           0       13.728200    5.691230   19.580200
    199          1           0       13.761400    5.564610   17.984500
    200          1           0       15.076500    6.013010   18.778500
 ---------------------------------------------------------------------

 SCF Done:  E(RB3LYP) =  -4575.29506864     A.U. after   15 cycles

 Excitation energies and oscillator strengths:

 Excited state symmetry could not be determined.
 Excited State   1:      Singlet-?Sym    1.7471 eV  709.65 nm  f=0.3583  <S**2>=0.000
     345 -> 348       -0.49606
     346 -> 347        0.50970
 This state for optimization and/or second-order correction.
 Total Energy, E(TD-HF/TD-KS) =  -4575.23086309
 Copying the excited state density for this state as the 1-particle RhoCI density.

 Excited state symmetry could not be determined.
 Excited State   2:      Singlet-?Sym    1.7575 eV  705.45 nm  f=0.0000  <S**2>=0.000
     345 -> 347       -0.49896
     346 -> 348        0.50127

 Excited state symmetry could not be determined.
 Excited State   3:      Singlet-?Sym    1.8056 eV  686.68 nm  f=0.0000  <S**2>=0.000
     345 -> 347        0.48506
     345 -> 348        0.17783
     346 -> 347        0.19070
     346 -> 348        0.44351

 Excited state symmetry could not be determined.
 Excited State   4:      Singlet-?Sym    1.8056 eV  686.68 nm  f=0.0000  <S**2>=0.000
     345 -> 347       -0.13620
     345 -> 348        0.47127
     346 -> 347        0.45209
     346 -> 348       -0.23439

 Excited state symmetry could not be determined.
 Excited State   5:      Singlet-?Sym    2.7593 eV  449.34 nm  f=0.0000  <S**2>=0.000
     343 -> 347        0.50360
     343 -> 348        0.39002
     344 -> 348        0.24060
     345 -> 349       -0.10918
     346 -> 349        0.11977

 Excited state symmetry could not be determined.
 Excited State   6:      Singlet-?Sym    2.7594 eV  449.32 nm  f=0.0000  <S**2>=0.000
     343 -> 348        0.23133
     344 -> 347        0.45063
     344 -> 348       -0.45016
     345 -> 350        0.11928
     346 -> 350        0.10976

 Excited state symmetry could not be determined.
 Excited State   7:      Singlet-?Sym    3.1232 eV  396.98 nm  f=0.0000  <S**2>=0.000
     344 -> 347        0.52158
     344 -> 348        0.46034

 Excited state symmetry could not be determined.
 Excited State   8:      Singlet-?Sym    3.1233 eV  396.97 nm  f=0.0000  <S**2>=0.000
     343 -> 347       -0.45965
     343 -> 348        0.52219

 Excited state symmetry could not be determined.
 Excited State   9:      Singlet-?Sym    3.1847 eV  389.31 nm  f=0.1452  <S**2>=0.000
     341 -> 348       -0.44257
     342 -> 347        0.46618
     345 -> 352       -0.17560
     346 -> 351       -0.17580

 Excited state symmetry could not be determined.
 Excited State  10:      Singlet-?Sym    3.1873 eV  389.00 nm  f=0.0000  <S**2>=0.000
     339 -> 347        0.10221
     340 -> 348        0.10563
     341 -> 347       -0.42977
     342 -> 348        0.44991
     345 -> 351        0.17938
     346 -> 352        0.17936

 Excited state symmetry could not be determined.
 Excited State  11:      Singlet-?Sym    3.1969 eV  387.83 nm  f=0.0000  <S**2>=0.000
     339 -> 347        0.32098
     339 -> 348        0.20423
     340 -> 347       -0.20314
     340 -> 348        0.31828
     341 -> 347        0.14310
     342 -> 348       -0.15459
     345 -> 353       -0.24470
     345 -> 354        0.14647
     346 -> 353       -0.14508
     346 -> 354       -0.24606

 Excited state symmetry could not be determined.
 Excited State  12:      Singlet-?Sym    3.1973 eV  387.78 nm  f=0.0919  <S**2>=0.000
     339 -> 347        0.24748
     339 -> 348        0.29831
     340 -> 347        0.29892
     340 -> 348       -0.24871
     342 -> 347       -0.10891
     345 -> 353        0.17187
     345 -> 354        0.23789
     346 -> 353        0.23864
     346 -> 354       -0.17108

 Excited state symmetry could not be determined.
 Excited State  13:      Singlet-?Sym    3.2338 eV  383.40 nm  f=0.0000  <S**2>=0.000
     343 -> 347       -0.11429
     345 -> 349       -0.37712
     345 -> 350       -0.28594
     346 -> 349        0.41618
     346 -> 350       -0.25863

 Excited state symmetry could not be determined.
 Excited State  14:      Singlet-?Sym    3.2341 eV  383.37 nm  f=0.0000  <S**2>=0.000
     344 -> 347       -0.10363
     345 -> 349       -0.26214
     345 -> 350        0.41213
     346 -> 349        0.28267
     346 -> 350        0.38153

 Excited state symmetry could not be determined.
 Excited State  15:      Singlet-?Sym    3.5168 eV  352.55 nm  f=0.0000  <S**2>=0.000
     345 -> 350       -0.47835
     346 -> 350        0.52066

 Excited state symmetry could not be determined.
 Excited State  16:      Singlet-?Sym    3.5168 eV  352.55 nm  f=0.0000  <S**2>=0.000
     345 -> 349        0.52214
     346 -> 349        0.47674

 Excited state symmetry could not be determined.
 Excited State  17:      Singlet-?Sym    3.5399 eV  350.25 nm  f=0.0025  <S**2>=0.000
     338 -> 347       -0.15065
     341 -> 347        0.19228
     341 -> 348        0.43340
     342 -> 347        0.46650
     342 -> 348        0.14089

 Excited state symmetry could not be determined.
 Excited State  18:      Singlet-?Sym    3.5404 eV  350.20 nm  f=0.0004  <S**2>=0.000
     338 -> 348       -0.14600
     341 -> 347        0.43632
     341 -> 348       -0.19322
     342 -> 347       -0.13897
     342 -> 348        0.46681

 Excited state symmetry could not be determined.
 Excited State  19:      Singlet-?Sym    3.6064 eV  343.79 nm  f=0.0227  <S**2>=0.000
     334 -> 347        0.12006
     335 -> 348        0.42687
     336 -> 347        0.34637
     338 -> 347        0.30880
     341 -> 348        0.15637
     346 -> 351       -0.10013

 Excited state symmetry could not be determined.
 Excited State  20:      Singlet-?Sym    3.6076 eV  343.68 nm  f=0.0001  <S**2>=0.000
     334 -> 348        0.11900
     335 -> 347        0.43626
     336 -> 348        0.35858
     338 -> 348        0.30018
     341 -> 347        0.14402

 Excited state symmetry could not be determined.
 Excited State  21:      Singlet-?Sym    3.6258 eV  341.95 nm  f=0.0017  <S**2>=0.000
     333 -> 348        0.19139
     334 -> 347        0.24054
     335 -> 348       -0.11149
     336 -> 347       -0.31075
     337 -> 348        0.40773
     338 -> 347        0.29851

 Excited state symmetry could not be determined.
 Excited State  22:      Singlet-?Sym    3.6260 eV  341.93 nm  f=0.0000  <S**2>=0.000
     333 -> 347        0.19439
     334 -> 348        0.24603
     336 -> 348       -0.30023
     337 -> 347        0.40944
     338 -> 348        0.30439

 Excited state symmetry could not be determined.
 Excited State  23:      Singlet-?Sym    3.6627 eV  338.50 nm  f=0.0001  <S**2>=0.000
     340 -> 347        0.52398
     340 -> 348        0.46167

 Excited state symmetry could not be determined.
 Excited State  24:      Singlet-?Sym    3.6629 eV  338.48 nm  f=0.0001  <S**2>=0.000
     339 -> 347       -0.46190
     339 -> 348        0.52383

 Excited state symmetry could not be determined.
 Excited State  25:      Singlet-?Sym    3.6793 eV  336.98 nm  f=0.5243  <S**2>=0.000
     335 -> 348        0.13579
     336 -> 347        0.10397
     341 -> 348       -0.19438
     342 -> 347        0.13480
     345 -> 352        0.43250
     346 -> 351        0.43787

 Alpha  occ. eigenvalues --  -66.10419 -66.10416 -66.10349 -66.10347 -10.21462
 Alpha  occ. eigenvalues --  -10.21459 -10.21457 -10.21454 -10.20197 -10.20196
 Alpha  occ. eigenvalues --  -10.20188 -10.20188 -10.20143 -10.20142 -10.20137
 Alpha  occ. eigenvalues --  -10.20136 -10.19260 -10.19259 -10.19252 -10.19252
 Alpha  occ. eigenvalues --  -10.19208 -10.19208 -10.19203 -10.19203 -10.18172
 Alpha  occ. eigenvalues --  -10.18171 -10.18151 -10.18150 -10.17280 -10.17280
 Alpha  occ. eigenvalues --  -10.17275 -10.17275 -10.17236 -10.17235 -10.17235
 Alpha  occ. eigenvalues --  -10.17234 -10.17204 -10.17204 -10.17203 -10.17203
 Alpha  occ. eigenvalues --  -10.17203 -10.17202 -10.17201 -10.17201 -10.17157
 Alpha  occ. eigenvalues --  -10.17156 -10.17155 -10.17155 -10.17113 -10.17112
 Alpha  occ. eigenvalues --  -10.17112 -10.17112 -10.15589 -10.15586 -10.15571
 Alpha  occ. eigenvalues --  -10.15569 -10.15213 -10.15212 -10.15135 -10.15133
 Alpha  occ. eigenvalues --  -10.14801 -10.14794 -10.14744 -10.14736 -10.14325
 Alpha  occ. eigenvalues --  -10.14320 -10.14272 -10.14267 -10.13468 -10.13463
 Alpha  occ. eigenvalues --  -10.13457 -10.13450 -10.13385 -10.13381 -10.13316
 Alpha  occ. eigenvalues --  -10.13312 -10.13243 -10.13241 -10.13198 -10.13182
 Alpha  occ. eigenvalues --  -10.13155 -10.13149 -10.13127 -10.13111 -10.12940
 Alpha  occ. eigenvalues --  -10.12933 -10.12923 -10.12911 -10.12899 -10.12888
 Alpha  occ. eigenvalues --  -10.12748 -10.12744  -5.25123  -5.25120  -5.25053
 Alpha  occ. eigenvalues --   -5.25050  -3.61130  -3.61127  -3.61060  -3.61058
 Alpha  occ. eigenvalues --   -3.60916  -3.60913  -3.60894  -3.60891  -3.60845
 Alpha  occ. eigenvalues --   -3.60842  -3.60824  -3.60821  -0.89330  -0.89330
 Alpha  occ. eigenvalues --   -0.87486  -0.87485  -0.85600  -0.85600  -0.82389
 Alpha  occ. eigenvalues --   -0.82388  -0.81751  -0.81749  -0.81196  -0.81184
 Alpha  occ. eigenvalues --   -0.81155  -0.81103  -0.79644  -0.79385  -0.79383
 Alpha  occ. eigenvalues --   -0.79196  -0.78858  -0.78843  -0.78801  -0.78713
 Alpha  occ. eigenvalues --   -0.78710  -0.78459  -0.78459  -0.78444  -0.77266
 Alpha  occ. eigenvalues --   -0.77266  -0.74175  -0.74175  -0.74162  -0.74160
 Alpha  occ. eigenvalues --   -0.73501  -0.73501  -0.72610  -0.72607  -0.71717
 Alpha  occ. eigenvalues --   -0.71716  -0.71692  -0.71653  -0.71027  -0.70800
 Alpha  occ. eigenvalues --   -0.70796  -0.70672  -0.70579  -0.70568  -0.70563
 Alpha  occ. eigenvalues --   -0.70316  -0.69364  -0.69361  -0.67717  -0.67716
 Alpha  occ. eigenvalues --   -0.63271  -0.63201  -0.63150  -0.63150  -0.62817
 Alpha  occ. eigenvalues --   -0.62816  -0.62048  -0.61825  -0.61678  -0.61561
 Alpha  occ. eigenvalues --   -0.61415  -0.61414  -0.60989  -0.60936  -0.59386
 Alpha  occ. eigenvalues --   -0.59049  -0.59041  -0.59020  -0.59015  -0.58955
 Alpha  occ. eigenvalues --   -0.58948  -0.58781  -0.58766  -0.58665  -0.54153
 Alpha  occ. eigenvalues --   -0.54153  -0.53780  -0.53780  -0.53343  -0.53343
 Alpha  occ. eigenvalues --   -0.52572  -0.52571  -0.52543  -0.52539  -0.50805
 Alpha  occ. eigenvalues --   -0.50742  -0.49889  -0.49796  -0.48658  -0.48658
 Alpha  occ. eigenvalues --   -0.48298  -0.48250  -0.47798  -0.47618  -0.47535
 Alpha  occ. eigenvalues --   -0.47425  -0.47159  -0.47152  -0.46439  -0.46346
 Alpha  occ. eigenvalues --   -0.46341  -0.46277  -0.45832  -0.45587  -0.45492
 Alpha  occ. eigenvalues --   -0.45492  -0.45417  -0.45415  -0.45407  -0.44928
 Alpha  occ. eigenvalues --   -0.44928  -0.44751  -0.44669  -0.44611  -0.44594
 Alpha  occ. eigenvalues --   -0.44284  -0.44197  -0.43973  -0.43737  -0.43737
 Alpha  occ. eigenvalues --   -0.43544  -0.43518  -0.43472  -0.43471  -0.43234
 Alpha  occ. eigenvalues --   -0.43183  -0.43030  -0.42936  -0.42390  -0.42365
 Alpha  occ. eigenvalues --   -0.42055  -0.42016  -0.42009  -0.41880  -0.41427
 Alpha  occ. eigenvalues --   -0.41387  -0.41373  -0.41343  -0.41329  -0.41322
 Alpha  occ. eigenvalues --   -0.41230  -0.41166  -0.41149  -0.40934  -0.40930
 Alpha  occ. eigenvalues --   -0.40898  -0.40699  -0.40695  -0.40433  -0.40339
 Alpha  occ. eigenvalues --   -0.40231  -0.40230  -0.40161  -0.40103  -0.40072
 Alpha  occ. eigenvalues --   -0.40071  -0.39648  -0.39645  -0.39629  -0.39180
 Alpha  occ. eigenvalues --   -0.38827  -0.38827  -0.38812  -0.38812  -0.36703
 Alpha  occ. eigenvalues --   -0.36672  -0.36606  -0.36603  -0.35956  -0.35956
 Alpha  occ. eigenvalues --   -0.35052  -0.35039  -0.35028  -0.34964  -0.34642
 Alpha  occ. eigenvalues --   -0.34640  -0.34622  -0.34564  -0.34148  -0.34118
 Alpha  occ. eigenvalues --   -0.33750  -0.33730  -0.33689  -0.33653  -0.33634
 Alpha  occ. eigenvalues --   -0.33593  -0.33481  -0.33472  -0.33426  -0.33421
 Alpha  occ. eigenvalues --   -0.33408  -0.33236  -0.33230  -0.33217  -0.33156
 Alpha  occ. eigenvalues --   -0.33147  -0.33012  -0.33005  -0.32703  -0.32683
 Alpha  occ. eigenvalues --   -0.32633  -0.32584  -0.32280  -0.32280  -0.31836
 Alpha  occ. eigenvalues --   -0.31788  -0.31717  -0.31504  -0.29468  -0.29424
 Alpha  occ. eigenvalues --   -0.28659  -0.28658  -0.28267  -0.28217  -0.28140
 Alpha  occ. eigenvalues --   -0.28136  -0.28018  -0.28017  -0.27118  -0.26929
 Alpha  occ. eigenvalues --   -0.26463  -0.26081  -0.25315  -0.25282  -0.25121
 Alpha  occ. eigenvalues --   -0.25099  -0.25026  -0.24680  -0.23666  -0.23665
 Alpha  occ. eigenvalues --   -0.23314  -0.23241  -0.21682  -0.21682  -0.16853
 Alpha  occ. eigenvalues --   -0.16850
 Alpha virt. eigenvalues --   -0.09585  -0.09583  -0.03308  -0.03308  -0.01697
 Alpha virt. eigenvalues --   -0.01689  -0.01440  -0.01440   0.01910   0.01922
 Alpha virt. eigenvalues --    0.02783   0.02784   0.03054   0.03059   0.03209

 Mulliken atomic charges:
              1
     1  Si   0.575864
     2  C   -0.075440
     3  C    0.111279
     4  C   -0.158268
     5  H    0.059444
     6  C    0.103403
     7  C   -0.087104
     8  H    0.058551
     9  C   -0.062965
    10  H    0.059173
    11  C   -0.062806
    12  H    0.059073
    13  C   -0.081113
    14  H    0.056559
    15  C    0.105098
    16  C   -0.170458
    17  H    0.066819
    18  C    0.113381
    19  C    0.393345
    20  C   -0.608612
    21  C   -0.287101
    22  H    0.105565
    23  C   -0.306707
    24  H    0.123849
    25  H    0.103302
    26  H    0.093714
    27  C   -0.309715
    28  H    0.094551
    29  H    0.105114
    30  H    0.121027
    31  C   -0.281375
    32  H    0.112254
    33  C   -0.311552
    34  H    0.109178
    35  H    0.098351
    36  H    0.107847
    37  C   -0.298813
    38  H    0.104335
    39  H    0.114201
    40  H    0.095467
    41  C   -0.277951
    42  H    0.115756
    43  C   -0.307893
    44  H    0.105617
    45  H    0.096498
    46  H    0.109421
    47  C   -0.304414
    48  H    0.120240
    49  H    0.104180
    50  H    0.090613
    51  Si   0.576249
    52  C   -0.076496
    53  C    0.112486
    54  C   -0.158706
    55  H    0.059648
    56  C    0.102919
    57  C   -0.086804
    58  H    0.058430
    59  C   -0.063282
    60  H    0.059269
    61  C   -0.062417
    62  H    0.058901
    63  C   -0.081359
    64  H    0.056644
    65  C    0.105058
    66  C   -0.171187
    67  H    0.067021
    68  C    0.113783
    69  C    0.393629
    70  C   -0.609436
    71  C   -0.287247
    72  H    0.104823
    73  C   -0.306868
    74  H    0.124189
    75  H    0.103231
    76  H    0.093658
    77  C   -0.309705
    78  H    0.094483
    79  H    0.104792
    80  H    0.121402
    81  C   -0.272513
    82  H    0.112724
    83  C   -0.311237
    84  H    0.098014
    85  H    0.103600
    86  H    0.108977
    87  C   -0.305258
    88  H    0.106176
    89  H    0.117919
    90  H    0.090819
    91  C   -0.277026
    92  H    0.115950
    93  C   -0.307873
    94  H    0.105191
    95  H    0.096611
    96  H    0.109016
    97  C   -0.304911
    98  H    0.120692
    99  H    0.104775
   100  H    0.090481
   101  Si   0.575913
   102  C   -0.075682
   103  C    0.111360
   104  C   -0.158275
   105  H    0.059329
   106  C    0.103482
   107  C   -0.087059
   108  H    0.058513
   109  C   -0.062926
   110  H    0.059184
   111  C   -0.062868
   112  H    0.059077
   113  C   -0.081101
   114  H    0.056605
   115  C    0.104972
   116  C   -0.170426
   117  H    0.066956
   118  C    0.113236
   119  C    0.394406
   120  C   -0.609950
   121  C   -0.287482
   122  H    0.104777
   123  C   -0.306660
   124  H    0.124103
   125  H    0.103254
   126  H    0.093666
   127  C   -0.309672
   128  H    0.094485
   129  H    0.104806
   130  H    0.121439
   131  C   -0.272519
   132  H    0.112744
   133  C   -0.311315
   134  H    0.098003
   135  H    0.103512
   136  H    0.109055
   137  C   -0.305074
   138  H    0.106188
   139  H    0.117925
   140  H    0.090818
   141  C   -0.277276
   142  H    0.115881
   143  C   -0.308063
   144  H    0.105170
   145  H    0.096608
   146  H    0.109019
   147  C   -0.304523
   148  H    0.120648
   149  H    0.104787
   150  H    0.090567
   151  Si   0.576186
   152  C   -0.076278
   153  C    0.112434
   154  C   -0.158750
   155  H    0.059787
   156  C    0.102873
   157  C   -0.086850
   158  H    0.058464
   159  C   -0.063301
   160  H    0.059263
   161  C   -0.062378
   162  H    0.058901
   163  C   -0.081357
   164  H    0.056592
   165  C    0.105103
   166  C   -0.171212
   167  H    0.066908
   168  C    0.113965
   169  C    0.392614
   170  C   -0.608129
   171  C   -0.286859
   172  H    0.105605
   173  C   -0.306908
   174  H    0.123931
   175  H    0.103277
   176  H    0.093710
   177  C   -0.309744
   178  H    0.094542
   179  H    0.105095
   180  H    0.120986
   181  C   -0.281376
   182  H    0.112224
   183  C   -0.311429
   184  H    0.109186
   185  H    0.098407
   186  H    0.107758
   187  C   -0.298977
   188  H    0.104308
   189  H    0.114186
   190  H    0.095457
   191  C   -0.277698
   192  H    0.115815
   193  C   -0.307712
   194  H    0.105644
   195  H    0.096497
   196  H    0.109417
   197  C   -0.304787
   198  H    0.120280
   199  H    0.104168
   200  H    0.090525
 Sum of Mulliken atomic charges =   0.00000

 Dipole moment (field-independent basis, Debye):
    X=              0.0001    Y=              0.0016    Z=             -0.0007  Tot=              0.0018
 Quadrupole moment (field-independent basis, Debye-Ang):
   XX=           -537.4725   YY=           -558.3161   ZZ=           -528.2286
   XY=            -21.3982   XZ=            -14.1710   YZ=            -22.9843

 Normal termination of Gaussian 09 at Wed Feb  6 00:18:24 2013.
