 Gaussian 09, Revision A.02,
 Gaussian 09:  EM64L-G09RevA.02 11-Jun-2009

 ---------------------------------------------------------
 #p scf=verytight b3lyp/6-31g(d,p) td(singlets,nstates=25)
 ---------------------------------------------------------

 ----------------
 CSD ENTRY k01094
 ----------------
 Symbolic Z-matrix:
 Charge =  0 Multiplicity = 1

                         Standard orientation:
 ---------------------------------------------------------------------
 Center     Atomic      Atomic             Coordinates (Angstroms)
 Number     Number       Type             X           Y           Z
 ---------------------------------------------------------------------
      1         14           0      -13.598047    0.991110    1.302012
      2         14           0       -2.770558   -1.452125   -1.782989
      3          6           0       -9.594512    0.691029   -0.620232
      4          6           0       -8.704162    1.771595   -0.819875
      5          6           0       -9.121671    3.112601   -0.713026
      6          1           0      -10.026750    3.294007   -0.490677
      7          6           0       -8.258967    4.172370   -0.920364
      8          6           0       -8.674425    5.537237   -0.816750
      9          1           0       -9.578629    5.734575   -0.603697
     10          6           0       -7.802421    6.555072   -1.015906
     11          1           0       -8.102850    7.453985   -0.944509
     12          6           0       -6.440985    6.286883   -1.328904
     13          1           0       -5.836532    7.007662   -1.460178
     14          6           0       -6.001194    5.013279   -1.441957
     15          1           0       -5.090146    4.853239   -1.660582
     16          6           0       -6.879853    3.899745   -1.237580
     17          6           0       -6.449997    2.589356   -1.329626
     18          1           0       -5.537626    2.416061   -1.530181
     19          6           0       -7.322643    1.503439   -1.135980
     20          6           0       -6.870548    0.155143   -1.199244
     21          6           0       -7.772073   -0.928371   -1.036472
     22          6           0       -7.356683   -2.269324   -1.084912
     23          1           0       -6.440336   -2.457578   -1.247369
     24          6           0       -8.234299   -3.329397   -0.903488
     25          6           0       -7.807280   -4.688967   -0.899476
     26          1           0       -6.885305   -4.889545   -1.008300
     27          6           0       -8.695547   -5.706080   -0.743645
     28          1           0       -8.388565   -6.604290   -0.732111
     29          6           0      -10.087796   -5.429909   -0.595961
     30          1           0      -10.704074   -6.147465   -0.511482
     31          6           0      -10.534068   -4.155711   -0.576624
     32          1           0      -11.464143   -3.989539   -0.473850
     33          6           0       -9.632626   -3.045269   -0.707134
     34          6           0      -10.059029   -1.729980   -0.642291
     35          1           0      -10.982000   -1.548843   -0.504380
     36          6           0       -9.164593   -0.652377   -0.774019
     37          6           0      -10.932158    0.926930   -0.153144
     38          6           0      -12.033506    1.042418    0.340909
     39          6           0      -13.247887    1.547760    3.041402
     40          1           0      -12.687407    0.882536    3.492237
     41          1           0      -14.093331    1.647218    3.529308
     42          1           0      -12.781282    2.409304    3.020259
     43          6           0      -14.858970    2.122402    0.529912
     44          1           0      -14.486657    3.025546    0.459086
     45          1           0      -15.663618    2.142824    1.088230
     46          1           0      -15.089230    1.791801   -0.363737
     47          6           0      -14.188358   -0.804671    1.275168
     48          6           0      -15.530739   -0.913328    2.010269
     49          1           0      -16.206007   -0.384460    1.535670
     50          1           0      -15.430817   -0.571814    2.923459
     51          1           0      -15.812046   -1.851060    2.039435
     52          6           0      -14.370499   -1.283442   -0.169059
     53          1           0      -13.515715   -1.220062   -0.643796
     54          1           0      -15.036172   -0.721154   -0.617967
     55          1           0      -14.676152   -2.214404   -0.168451
     56          6           0      -13.166364   -1.715701    1.977966
     57          1           0      -13.469473   -2.646143    1.927749
     58          1           0      -13.083051   -1.449144    2.918186
     59          1           0      -12.295491   -1.630945    1.536324
     60          6           0       -5.485725   -0.158885   -1.410785
     61          6           0       -4.345646   -0.544459   -1.568784
     62          6           0       -3.008706   -2.666491   -3.170544
     63          1           0       -3.771721   -3.247827   -2.968103
     64          1           0       -2.200523   -3.210944   -3.269591
     65          1           0       -3.179923   -2.180052   -4.004133
     66          6           0       -1.407261   -0.275122   -2.233507
     67          1           0       -1.669601    0.240914   -3.023995
     68          1           0       -0.590516   -0.781258   -2.429696
     69          1           0       -1.241899    0.335786   -1.484773
     70          6           0       -2.406912   -2.340343   -0.156756
     71          6           0       -2.114862   -1.322592    0.949170
     72          1           0       -2.878364   -0.716179    1.045125
     73          1           0       -1.315329   -0.805361    0.714965
     74          1           0       -1.962684   -1.792526    1.795373
     75          6           0       -1.184261   -3.253008   -0.311524
     76          1           0       -0.411695   -2.719113   -0.589524
     77          1           0       -1.369738   -3.936424   -0.989562
     78          1           0       -0.990325   -3.687631    0.545236
     79          6           0       -3.615405   -3.195991    0.266899
     80          1           0       -3.404883   -3.668427    1.099470
     81          1           0       -3.816828   -3.847714   -0.436639
     82          1           0       -4.391952   -2.615831    0.407638
     83         14           0        2.884484    1.364543    2.139399
     84         14           0       13.712015   -1.078677   -0.945614
     85          6           0        6.888033    1.064498    0.217137
     86          6           0        7.778352    2.145108    0.017481
     87          6           0        7.360808    3.486058    0.124351
     88          1           0        6.455759    3.667479    0.346696
     89          6           0        8.223531    4.545837   -0.082986
     90          6           0        7.808104    5.910710    0.020622
     91          1           0        6.903911    6.108051    0.233668
     92          6           0        8.680102    6.928549   -0.178541
     93          1           0        8.379679    7.827464   -0.107138
     94          6           0       10.041518    6.660355   -0.491529
     95          1           0       10.645979    7.381137   -0.622808
     96          6           0       10.481314    5.386744   -0.604580
     97          1           0       11.392366    5.226705   -0.823212
     98          6           0        9.602655    4.273215   -0.400204
     99          6           0       10.032516    2.962804   -0.492250
    100          1           0       10.944859    2.789484   -0.692790
    101          6           0        9.159912    1.876926   -0.298617
    102          6           0        9.611951    0.528623   -0.361873
    103          6           0        8.710400   -0.554900   -0.199097
    104          6           0        9.125810   -1.895869   -0.247532
    105          1           0       10.042200   -2.084080   -0.410003
    106          6           0        8.248272   -2.955926   -0.066119
    107          6           0        8.675210   -4.315464   -0.062114
    108          1           0        9.597256   -4.516068   -0.170929
    109          6           0        7.786960   -5.332563    0.093716
    110          1           0        8.093997   -6.230840    0.105269
    111          6           0        6.394752   -5.056461    0.241420
    112          1           0        5.778429   -5.773969    0.325876
    113          6           0        5.948453   -3.782226    0.260747
    114          1           0        5.018368   -3.616055    0.363519
    115          6           0        6.849851   -2.671805    0.130242
    116          6           0        6.423480   -1.356504    0.195074
    117          1           0        5.500553   -1.175402    0.333003
    118          6           0        7.317882   -0.278906    0.063356
    119          6           0        5.550313    1.300415    0.684226
    120          6           0        4.449052    1.415922    1.178271
    121          6           0        3.234681    1.921238    3.878790
    122          1           0        3.795135    1.256008    4.329600
    123          1           0        2.389206    2.020730    4.366714
    124          1           0        3.701225    2.782769    3.857635
    125          6           0        1.623570    2.495886    1.367280
    126          1           0        1.995839    3.399015    1.296462
    127          1           0        0.818853    2.516284    1.925607
    128          1           0        1.393331    2.165286    0.473628
    129          6           0        2.294163   -0.431180    2.112533
    130          6           0        0.951791   -0.539870    2.847640
    131          1           0        0.276554   -0.010986    2.373044
    132          1           0        1.051657   -0.198335    3.760878
    133          1           0        0.670470   -1.477626    2.876819
    134          6           0        2.112043   -0.909945    0.668302
    135          1           0        2.966788   -0.846617    0.193585
    136          1           0        1.446322   -0.347716    0.219421
    137          1           0        1.806402   -1.840900    0.668913
    138          6           0        3.316151   -1.342229    2.815338
    139          1           0        3.013078   -2.272660    2.765115
    140          1           0        3.399470   -1.075700    3.755567
    141          1           0        4.186997   -1.257488    2.373706
    142          6           0       10.996832    0.214612   -0.573420
    143          6           0       12.136820   -0.170969   -0.731419
    144          6           0       13.473847   -2.293041   -2.333165
    145          1           0       12.710793   -2.874365   -2.130732
    146          1           0       14.281997   -2.837445   -2.432231
    147          1           0       13.302555   -1.806587   -3.166756
    148          6           0       15.075239    0.098364   -1.396139
    149          1           0       14.812956    0.614386   -2.186625
    150          1           0       15.892022   -0.407744   -1.592344
    151          1           0       15.240640    0.709293   -0.647413
    152          6           0       14.075581   -1.966907    0.680625
    153          6           0       14.367643   -0.949083    1.786531
    154          1           0       13.604146   -0.342719    1.882502
    155          1           0       15.167186   -0.431863    1.552329
    156          1           0       14.519828   -1.419081    2.632757
    157          6           0       15.298315   -2.879552    0.525856
    158          1           0       16.070804   -2.345642    0.247844
    159          1           0       15.112784   -3.562909   -0.152206
    160          1           0       15.492139   -3.314136    1.382604
    161          6           0       12.867123   -2.822513    1.104264
    162          1           0       13.077670   -3.294940    1.936838
    163          1           0       12.665681   -3.474269    0.400739
    164          1           0       12.090589   -2.242369    1.245014
 ---------------------------------------------------------------------

 SCF Done:  E(RB3LYP) =  -4103.82067932     A.U. after   16 cycles

 Excitation energies and oscillator strengths:

 Excited State   1:      Singlet-A      1.7264 eV  718.15 nm  f=0.3284  <S**2>=0.000
     297 -> 299        0.50006
     298 -> 300        0.50234
 This state for optimization and/or second-order correction.
 Total Energy, E(TD-HF/TD-KS) =  -4103.75723361
 Copying the excited state density for this state as the 1-particle RhoCI density.

 Excited State   2:      Singlet-A      1.7382 eV  713.29 nm  f=0.0000  <S**2>=0.000
     297 -> 299        0.50421
     298 -> 300       -0.50195

 Excited State   3:      Singlet-A      1.7762 eV  698.05 nm  f=0.0000  <S**2>=0.000
     298 -> 299        0.70565

 Excited State   4:      Singlet-A      1.7783 eV  697.22 nm  f=0.0000  <S**2>=0.000
     297 -> 300        0.70574

 Excited State   5:      Singlet-A      2.7243 eV  455.11 nm  f=0.0003  <S**2>=0.000
     296 -> 300        0.68358
     298 -> 302       -0.16577

 Excited State   6:      Singlet-A      2.7251 eV  454.97 nm  f=0.0002  <S**2>=0.000
     295 -> 299        0.68342
     297 -> 301       -0.16636

 Excited State   7:      Singlet-A      3.0873 eV  401.59 nm  f=0.0000  <S**2>=0.000
     296 -> 299        0.70646

 Excited State   8:      Singlet-A      3.0887 eV  401.42 nm  f=0.0000  <S**2>=0.000
     295 -> 300        0.70645

 Excited State   9:      Singlet-A      3.1567 eV  392.77 nm  f=0.1079  <S**2>=0.000
     291 -> 299        0.10960
     293 -> 299        0.28888
     293 -> 300        0.30526
     294 -> 299        0.42128
     294 -> 300       -0.19724
     297 -> 303       -0.22119
     298 -> 304       -0.15693

 Excited State  10:      Singlet-A      3.1580 eV  392.60 nm  f=0.0032  <S**2>=0.000
     292 -> 300        0.13025
     293 -> 299       -0.22470
     293 -> 300        0.39786
     294 -> 299       -0.27441
     294 -> 300       -0.30716
     297 -> 303        0.15670
     298 -> 304       -0.22116
     298 -> 306        0.10100

 Excited State  11:      Singlet-A      3.1870 eV  389.03 nm  f=0.0904  <S**2>=0.000
     291 -> 299        0.41602
     292 -> 300        0.34198
     294 -> 299       -0.11346
     297 -> 301        0.10506
     297 -> 305        0.30291
     298 -> 306        0.24911

 Excited State  12:      Singlet-A      3.1872 eV  389.01 nm  f=0.0009  <S**2>=0.000
     291 -> 299       -0.33753
     292 -> 300        0.41105
     293 -> 300       -0.12281
     294 -> 299        0.10168
     297 -> 305       -0.24451
     298 -> 302        0.11339
     298 -> 306        0.29739

 Excited State  13:      Singlet-A      3.2063 eV  386.69 nm  f=0.0049  <S**2>=0.000
     291 -> 299       -0.10233
     295 -> 299        0.15859
     297 -> 301        0.65479
     298 -> 302        0.13172

 Excited State  14:      Singlet-A      3.2072 eV  386.58 nm  f=0.0026  <S**2>=0.000
     292 -> 300       -0.10526
     296 -> 300        0.15783
     297 -> 301       -0.13088
     298 -> 302        0.65317

 Excited State  15:      Singlet-A      3.4883 eV  355.43 nm  f=0.0000  <S**2>=0.000
     298 -> 301        0.70578

 Excited State  16:      Singlet-A      3.4912 eV  355.14 nm  f=0.0000  <S**2>=0.000
     297 -> 302        0.70613

 Excited State  17:      Singlet-A      3.5246 eV  351.77 nm  f=0.0000  <S**2>=0.000
     293 -> 299        0.56897
     294 -> 299       -0.41376

 Excited State  18:      Singlet-A      3.5340 eV  350.83 nm  f=0.0000  <S**2>=0.000
     293 -> 300        0.41541
     294 -> 300        0.57075

 Excited State  19:      Singlet-A      3.5715 eV  347.15 nm  f=0.0012  <S**2>=0.000
     280 -> 300        0.11275
     289 -> 300       -0.35275
     290 -> 300        0.58140

 Excited State  20:      Singlet-A      3.5744 eV  346.86 nm  f=0.0013  <S**2>=0.000
     279 -> 299        0.11177
     287 -> 299       -0.10977
     289 -> 299        0.57720
     290 -> 299        0.34290

 Excited State  21:      Singlet-A      3.6436 eV  340.28 nm  f=0.0001  <S**2>=0.000
     292 -> 299        0.70625

 Excited State  22:      Singlet-A      3.6450 eV  340.15 nm  f=0.0022  <S**2>=0.000
     291 -> 300        0.70452

 Excited State  23:      Singlet-A      3.6474 eV  339.92 nm  f=0.4626  <S**2>=0.000
     287 -> 300        0.13709
     288 -> 299        0.14254
     293 -> 299        0.10087
     293 -> 300        0.14420
     294 -> 299        0.14806
     297 -> 303        0.43377
     298 -> 304        0.41758

 Excited State  24:      Singlet-A      3.6553 eV  339.19 nm  f=0.0008  <S**2>=0.000
     287 -> 300        0.13843
     288 -> 299       -0.16461
     293 -> 299       -0.10847
     293 -> 300        0.14399
     294 -> 299       -0.13473
     294 -> 300       -0.11286
     297 -> 303       -0.40195
     298 -> 304        0.42746

 Excited State  25:      Singlet-A      3.7056 eV  334.58 nm  f=0.0296  <S**2>=0.000
     284 -> 299        0.14972
     286 -> 299       -0.42851
     287 -> 299        0.15290
     288 -> 299        0.43984
     297 -> 303       -0.22331

 The electronic state is 1-A.
 Alpha  occ. eigenvalues --  -66.11212 -66.11201 -66.11126 -66.11104 -10.21661
 Alpha  occ. eigenvalues --  -10.21657 -10.21590 -10.21590 -10.20347 -10.20346
 Alpha  occ. eigenvalues --  -10.20289 -10.20284 -10.20261 -10.20259 -10.20249
 Alpha  occ. eigenvalues --  -10.20244 -10.19432 -10.19420 -10.19381 -10.19372
 Alpha  occ. eigenvalues --  -10.19357 -10.19356 -10.19315 -10.19315 -10.18456
 Alpha  occ. eigenvalues --  -10.18442 -10.18406 -10.18401 -10.17482 -10.17471
 Alpha  occ. eigenvalues --  -10.17393 -10.17381 -10.17377 -10.17377 -10.17375
 Alpha  occ. eigenvalues --  -10.17372 -10.17371 -10.17370 -10.17368 -10.17359
 Alpha  occ. eigenvalues --  -10.17357 -10.17356 -10.17349 -10.17341 -10.17317
 Alpha  occ. eigenvalues --  -10.17316 -10.17314 -10.17295 -10.17276 -10.17275
 Alpha  occ. eigenvalues --  -10.17237 -10.17236 -10.16566 -10.16557 -10.16535
 Alpha  occ. eigenvalues --  -10.16505 -10.15840 -10.15837 -10.15834 -10.15825
 Alpha  occ. eigenvalues --  -10.13511 -10.13481 -10.13463 -10.13414 -10.13240
 Alpha  occ. eigenvalues --  -10.13132 -10.13118 -10.13106 -10.13097 -10.13059
 Alpha  occ. eigenvalues --  -10.13023 -10.12964 -10.12402 -10.12401 -10.12379
 Alpha  occ. eigenvalues --  -10.12369 -10.12367 -10.12352 -10.12336 -10.12335
 Alpha  occ. eigenvalues --   -5.25873  -5.25864  -5.25814  -5.25792  -3.61862
 Alpha  occ. eigenvalues --   -3.61853  -3.61800  -3.61779  -3.61692  -3.61683
 Alpha  occ. eigenvalues --   -3.61644  -3.61636  -3.61634  -3.61614  -3.61580
 Alpha  occ. eigenvalues --   -3.61558  -0.89392  -0.89389  -0.87506  -0.87500
 Alpha  occ. eigenvalues --   -0.85545  -0.85540  -0.82399  -0.82394  -0.81779
 Alpha  occ. eigenvalues --   -0.81775  -0.81296  -0.81203  -0.81180  -0.81159
 Alpha  occ. eigenvalues --   -0.78852  -0.78847  -0.78501  -0.78495  -0.77268
 Alpha  occ. eigenvalues --   -0.77262  -0.74454  -0.74451  -0.74218  -0.74213
 Alpha  occ. eigenvalues --   -0.73550  -0.73549  -0.73474  -0.73472  -0.72882
 Alpha  occ. eigenvalues --   -0.72878  -0.72240  -0.72236  -0.71419  -0.71363
 Alpha  occ. eigenvalues --   -0.71356  -0.71317  -0.71133  -0.71089  -0.71029
 Alpha  occ. eigenvalues --   -0.71020  -0.70522  -0.70479  -0.70441  -0.70430
 Alpha  occ. eigenvalues --   -0.69231  -0.69229  -0.67759  -0.67754  -0.63223
 Alpha  occ. eigenvalues --   -0.63217  -0.62894  -0.62893  -0.62842  -0.62837
 Alpha  occ. eigenvalues --   -0.61517  -0.61511  -0.61244  -0.61241  -0.58935
 Alpha  occ. eigenvalues --   -0.58929  -0.56831  -0.56666  -0.56590  -0.56478
 Alpha  occ. eigenvalues --   -0.54178  -0.54172  -0.53870  -0.53864  -0.53309
 Alpha  occ. eigenvalues --   -0.53303  -0.52537  -0.52531  -0.52114  -0.52088
 Alpha  occ. eigenvalues --   -0.49674  -0.49644  -0.49143  -0.49126  -0.48702
 Alpha  occ. eigenvalues --   -0.48697  -0.48258  -0.48250  -0.47229  -0.47223
 Alpha  occ. eigenvalues --   -0.46528  -0.46436  -0.46202  -0.46132  -0.45483
 Alpha  occ. eigenvalues --   -0.45479  -0.45347  -0.45196  -0.45166  -0.45081
 Alpha  occ. eigenvalues --   -0.44629  -0.44618  -0.44548  -0.44479  -0.44189
 Alpha  occ. eigenvalues --   -0.44177  -0.43781  -0.43773  -0.43518  -0.43514
 Alpha  occ. eigenvalues --   -0.43438  -0.43427  -0.43391  -0.43382  -0.43325
 Alpha  occ. eigenvalues --   -0.43320  -0.42607  -0.42602  -0.42031  -0.41957
 Alpha  occ. eigenvalues --   -0.41943  -0.41908  -0.41859  -0.41837  -0.41798
 Alpha  occ. eigenvalues --   -0.41794  -0.41368  -0.41354  -0.41272  -0.41260
 Alpha  occ. eigenvalues --   -0.41249  -0.41228  -0.40983  -0.40978  -0.40574
 Alpha  occ. eigenvalues --   -0.40540  -0.40478  -0.40427  -0.40139  -0.40134
 Alpha  occ. eigenvalues --   -0.40056  -0.40004  -0.39943  -0.39938  -0.38943
 Alpha  occ. eigenvalues --   -0.38938  -0.38846  -0.38835  -0.38633  -0.38483
 Alpha  occ. eigenvalues --   -0.38395  -0.38317  -0.37056  -0.37052  -0.36575
 Alpha  occ. eigenvalues --   -0.36570  -0.36040  -0.36034  -0.34846  -0.34839
 Alpha  occ. eigenvalues --   -0.34808  -0.34798  -0.34081  -0.34079  -0.33761
 Alpha  occ. eigenvalues --   -0.33757  -0.33627  -0.33622  -0.32973  -0.32970
 Alpha  occ. eigenvalues --   -0.32790  -0.32486  -0.32478  -0.32313  -0.32307
 Alpha  occ. eigenvalues --   -0.32288  -0.31797  -0.31766  -0.31724  -0.31702
 Alpha  occ. eigenvalues --   -0.30338  -0.30276  -0.30072  -0.30023  -0.29020
 Alpha  occ. eigenvalues --   -0.29016  -0.28713  -0.28706  -0.28301  -0.28286
 Alpha  occ. eigenvalues --   -0.27987  -0.27978  -0.27134  -0.27120  -0.26117
 Alpha  occ. eigenvalues --   -0.26109  -0.25452  -0.25428  -0.25183  -0.25166
 Alpha  occ. eigenvalues --   -0.23759  -0.23754  -0.23358  -0.23358  -0.21715
 Alpha  occ. eigenvalues --   -0.21709  -0.16908  -0.16905
 Alpha virt. eigenvalues --   -0.09739  -0.09737  -0.03459  -0.03454  -0.01915
 Alpha virt. eigenvalues --   -0.01914  -0.01531  -0.01526   0.01697   0.01700
 Alpha virt. eigenvalues --    0.02362   0.02383   0.02779   0.02795   0.02854

 Mulliken atomic charges:
              1
     1  Si   0.558537
     2  Si   0.566327
     3  C   -0.072413
     4  C    0.111756
     5  C   -0.167477
     6  H    0.063404
     7  C    0.106478
     8  C   -0.082060
     9  H    0.056733
    10  C   -0.063724
    11  H    0.060124
    12  C   -0.062369
    13  H    0.059977
    14  C   -0.082631
    15  H    0.057500
    16  C    0.103955
    17  C   -0.169075
    18  H    0.064222
    19  C    0.113587
    20  C   -0.073791
    21  C    0.111262
    22  C   -0.163405
    23  H    0.063416
    24  C    0.107557
    25  C   -0.086448
    26  H    0.057127
    27  C   -0.064351
    28  H    0.059682
    29  C   -0.061663
    30  H    0.059769
    31  C   -0.086104
    32  H    0.058801
    33  C    0.091882
    34  C   -0.150037
    35  H    0.066036
    36  C    0.098996
    37  C    0.356236
    38  C   -0.566114
    39  C   -0.519591
    40  H    0.127619
    41  H    0.119093
    42  H    0.129810
    43  C   -0.520996
    44  H    0.129224
    45  H    0.120258
    46  H    0.127688
    47  C   -0.187558
    48  C   -0.293580
    49  H    0.102082
    50  H    0.102496
    51  H    0.095732
    52  C   -0.295320
    53  H    0.115728
    54  H    0.102161
    55  H    0.089814
    56  C   -0.295019
    57  H    0.090341
    58  H    0.101121
    59  H    0.114434
    60  C    0.375425
    61  C   -0.584713
    62  C   -0.519397
    63  H    0.123483
    64  H    0.118896
    65  H    0.129424
    66  C   -0.522802
    67  H    0.131030
    68  H    0.122066
    69  H    0.126313
    70  C   -0.188241
    71  C   -0.295520
    72  H    0.115199
    73  H    0.103740
    74  H    0.093013
    75  C   -0.298367
    76  H    0.107129
    77  H    0.101297
    78  H    0.095551
    79  C   -0.296395
    80  H    0.091796
    81  H    0.096861
    82  H    0.116891
    83  Si   0.558455
    84  Si   0.566365
    85  C   -0.072620
    86  C    0.111867
    87  C   -0.167469
    88  H    0.063401
    89  C    0.106488
    90  C   -0.082054
    91  H    0.056742
    92  C   -0.063676
    93  H    0.060138
    94  C   -0.062346
    95  H    0.059948
    96  C   -0.082519
    97  H    0.057418
    98  C    0.103950
    99  C   -0.168915
   100  H    0.064267
   101  C    0.113546
   102  C   -0.073596
   103  C    0.111111
   104  C   -0.163249
   105  H    0.063527
   106  C    0.107468
   107  C   -0.086411
   108  H    0.057340
   109  C   -0.064452
   110  H    0.059748
   111  C   -0.061630
   112  H    0.059562
   113  C   -0.086241
   114  H    0.058296
   115  C    0.092073
   116  C   -0.150198
   117  H    0.065648
   118  C    0.099173
   119  C    0.356347
   120  C   -0.566320
   121  C   -0.519639
   122  H    0.127651
   123  H    0.119716
   124  H    0.129929
   125  C   -0.521864
   126  H    0.129433
   127  H    0.121594
   128  H    0.127083
   129  C   -0.190056
   130  C   -0.295757
   131  H    0.107196
   132  H    0.101565
   133  H    0.096696
   134  C   -0.302476
   135  H    0.115504
   136  H    0.104043
   137  H    0.093704
   138  C   -0.295268
   139  H    0.090294
   140  H    0.101632
   141  H    0.114477
   142  C    0.375457
   143  C   -0.584767
   144  C   -0.519484
   145  H    0.123498
   146  H    0.118633
   147  H    0.128979
   148  C   -0.521446
   149  H    0.130233
   150  H    0.119785
   151  H    0.127525
   152  C   -0.185552
   153  C   -0.291263
   154  H    0.116070
   155  H    0.099063
   156  H    0.091444
   157  C   -0.293609
   158  H    0.102004
   159  H    0.101324
   160  H    0.096586
   161  C   -0.296442
   162  H    0.092126
   163  H    0.096492
   164  H    0.116787
 Sum of Mulliken atomic charges =   0.00000

 Dipole moment (field-independent basis, Debye):
    X=             -0.0108    Y=             -0.8958    Z=              1.0390  Tot=              1.3718
 Quadrupole moment (field-independent basis, Debye-Ang):
   XX=           -444.6477   YY=           -446.6341   ZZ=           -503.2866
   XY=             -2.8102   XZ=            -16.5701   YZ=              1.0653

 Normal termination of Gaussian 09 at Fri Jan  6 06:11:05 2012.
