 Gaussian 09, Revision A.02,
 Gaussian 09:  EM64L-G09RevA.02 11-Jun-2009

 ---------------------------------------------------------
 #p scf=verytight b3lyp/6-31g(d,p) td(singlets,nstates=25)
 ---------------------------------------------------------

 ----------------
 CSD ENTRY k01094
 ----------------
 Symbolic Z-matrix:
 Charge =  0 Multiplicity = 1

                         Standard orientation:
 ---------------------------------------------------------------------
 Center     Atomic      Atomic             Coordinates (Angstroms)
 Number     Number       Type             X           Y           Z
 ---------------------------------------------------------------------
      1         14           0       -9.031408    4.541841   -0.555041
      2         14           0       -4.159467   -5.714143    1.394357
      3          6           0       -8.066306    0.317585    0.463592
      4          6           0       -8.657774   -0.819583   -0.134084
      5          6           0       -9.840477   -0.733517   -0.894238
      6          1           0      -10.245872    0.116443   -1.015646
      7          6           0      -10.430059   -1.843553   -1.469191
      8          6           0      -11.632352   -1.766344   -2.240381
      9          1           0      -12.054290   -0.924452   -2.363281
     10          6           0      -12.181184   -2.871502   -2.800248
     11          1           0      -12.982337   -2.795413   -3.305981
     12          6           0      -11.565279   -4.143360   -2.637648
     13          1           0      -11.954708   -4.910691   -3.039725
     14          6           0      -10.429955   -4.268198   -1.913963
     15          1           0      -10.037414   -5.127393   -1.808539
     16          6           0       -9.805469   -3.131748   -1.303824
     17          6           0       -8.635334   -3.231013   -0.574924
     18          1           0       -8.223476   -4.081578   -0.477008
     19          6           0       -8.035258   -2.110629    0.027467
     20          6           0       -6.812950   -2.210133    0.750208
     21          6           0       -6.240497   -1.075619    1.381414
     22          6           0       -5.031961   -1.138535    2.094529
     23          1           0       -4.589206   -1.975148    2.169171
     24          6           0       -4.459979   -0.024455    2.693312
     25          6           0       -3.208004   -0.074178    3.372191
     26          1           0       -2.728672   -0.893314    3.409195
     27          6           0       -2.686095    1.029651    3.969681
     28          1           0       -1.844924    0.977684    4.406582
     29          6           0       -3.396341    2.267081    3.942197
     30          1           0       -3.035626    3.027220    4.382533
     31          6           0       -4.577619    2.363489    3.295356
     32          1           0       -5.035669    3.196119    3.283866
     33          6           0       -5.156708    1.234205    2.622984
     34          6           0       -6.341795    1.319267    1.912813
     35          1           0       -6.792792    2.154640    1.863221
     36          6           0       -6.898196    0.203869    1.260968
     37          6           0       -8.576539    1.632044    0.189768
     38          6           0       -8.884065    2.773408   -0.080620
     39          6           0       -8.536689    4.724042   -2.338297
     40          1           0       -7.577651    4.547145   -2.432460
     41          1           0       -8.731620    5.637105   -2.640024
     42          1           0       -9.042736    4.086245   -2.883786
     43          6           0      -10.788336    5.117297   -0.336094
     44          1           0      -11.387962    4.535983   -0.847781
     45          1           0      -10.871964    6.038657   -0.658113
     46          1           0      -11.027319    5.079858    0.613860
     47          6           0       -7.855667    5.501887    0.571885
     48          6           0       -7.971766    7.002434    0.273481
     49          1           0       -8.879546    7.307200    0.483212
     50          1           0       -7.784804    7.161454   -0.675354
     51          1           0       -7.327239    7.495259    0.822148
     52          6           0       -8.209699    5.257061    2.042569
     53          1           0       -8.134203    4.300563    2.241214
     54          1           0       -9.128391    5.554378    2.211136
     55          1           0       -7.593380    5.759715    2.614936
     56          6           0       -6.401099    5.062055    0.328670
     57          1           0       -5.807428    5.543797    0.941531
     58          1           0       -6.148958    5.264175   -0.597385
     59          1           0       -6.320966    4.097913    0.485709
     60          6           0       -6.104863   -3.454869    0.851907
     61          6           0       -5.413720   -4.442661    0.993326
     62          6           0       -3.926366   -5.708063    3.238899
     63          1           0       -3.678646   -4.806439    3.533575
     64          1           0       -3.215367   -6.337252    3.479730
     65          1           0       -4.762475   -5.976575    3.674368
     66          6           0       -4.752462   -7.391256    0.862822
     67          1           0       -5.628900   -7.569428    1.262947
     68          1           0       -4.112880   -8.072869    1.159595
     69          1           0       -4.828247   -7.416804   -0.114295
     70          6           0       -2.564649   -5.231795    0.505707
     71          6           0       -2.748976   -5.340720   -1.010321
     72          1           0       -3.492623   -4.767969   -1.291074
     73          1           0       -2.945710   -6.271043   -1.249962
     74          1           0       -1.927831   -5.054545   -1.461854
     75          6           0       -1.420660   -6.163679    0.923636
     76          1           0       -1.661477   -7.089782    0.715008
     77          1           0       -1.263065   -6.076584    1.887364
     78          1           0       -0.605946   -5.919827    0.436475
     79          6           0       -2.176812   -3.782195    0.852572
     80          1           0       -1.336508   -3.552802    0.403174
     81          1           0       -2.062432   -3.697803    1.822147
     82          1           0       -2.884371   -3.174998    0.552424
     83         14           0        4.437722    5.762895   -1.654888
     84         14           0        9.309653   -4.493101    0.294542
     85          6           0        5.402784    1.538635   -0.636228
     86          6           0        4.811360    0.401469   -1.233885
     87          6           0        3.628672    0.487529   -1.994039
     88          1           0        3.223245    1.337497   -2.115463
     89          6           0        3.039081   -0.622504   -2.569008
     90          6           0        1.836756   -0.545282   -3.340230
     91          1           0        1.414824    0.296604   -3.463113
     92          6           0        1.287922   -1.650466   -3.900015
     93          1           0        0.486775   -1.574355   -4.405820
     94          6           0        1.903848   -2.922256   -3.737474
     95          1           0        1.514379   -3.689609   -4.139508
     96          6           0        3.039172   -3.047105   -3.013749
     97          1           0        3.431726   -3.906300   -2.908348
     98          6           0        3.663680   -1.910700   -2.403638
     99          6           0        4.833768   -2.009966   -1.674741
    100          1           0        5.245642   -2.860545   -1.576819
    101          6           0        5.433818   -0.889576   -1.072355
    102          6           0        6.656215   -0.989081   -0.349592
    103          6           0        7.228667    0.145429    0.281615
    104          6           0        8.437127    0.082517    0.994716
    105          1           0        8.879953   -0.754098    1.069367
    106          6           0        9.009117    1.196588    1.593501
    107          6           0       10.261134    1.146871    2.272388
    108          1           0       10.740417    0.327737    2.309381
    109          6           0       10.783036    2.250700    2.869872
    110          1           0       11.624191    2.198734    3.306773
    111          6           0       10.072772    3.488125    2.842387
    112          1           0       10.433522    4.248269    3.282726
    113          6           0        8.891549    3.584538    2.195554
    114          1           0        8.433494    4.417166    2.184066
    115          6           0        8.312365    2.455249    1.523168
    116          6           0        7.127374    2.540319    0.813011
    117          1           0        6.676328    3.375692    0.763414
    118          6           0        6.570968    1.424916    0.161167
    119          6           0        4.892607    2.853094   -0.910014
    120          6           0        4.585100    3.994461   -1.180450
    121          6           0        4.932410    5.945095   -3.438137
    122          1           0        5.891433    5.768194   -3.532276
    123          1           0        4.737532    6.858143   -3.739782
    124          1           0        4.426428    5.307296   -3.983596
    125          6           0        2.680794    6.338341   -1.435879
    126          1           0        2.081139    5.757036   -1.947625
    127          1           0        2.597146    7.259712   -1.757952
    128          1           0        2.441795    6.300912   -0.485977
    129          6           0        5.613498    6.722940   -0.527943
    130          6           0        5.497327    8.223481   -0.826325
    131          1           0        4.589545    8.528246   -0.616593
    132          1           0        5.684260    8.382490   -1.775127
    133          1           0        6.141878    8.716309   -0.277668
    134          6           0        5.259461    6.478110    0.942771
    135          1           0        5.334897    5.521609    1.141404
    136          1           0        4.340715    6.775427    1.111324
    137          1           0        5.875779    6.980765    1.515133
    138          6           0        7.067982    6.283105   -0.771163
    139          1           0        7.661647    6.764840   -0.158264
    140          1           0        7.320153    6.485229   -1.697212
    141          1           0        7.148116    5.318956   -0.614089
    142          6           0        7.364303   -2.233819   -0.247893
    143          6           0        8.055423   -3.221634   -0.106480
    144          6           0        9.542744   -4.487006    2.139093
    145          1           0        9.790438   -3.585349    2.433766
    146          1           0       10.253782   -5.116182    2.379936
    147          1           0        8.706600   -4.755551    2.574546
    148          6           0        8.716692   -6.170161   -0.236967
    149          1           0        7.840192   -6.348382    0.163135
    150          1           0        9.356262   -6.851819    0.059787
    151          1           0        8.640902   -6.195753   -1.214097
    152          6           0       10.904459   -4.010773   -0.594115
    153          6           0       10.720168   -4.119627   -2.110167
    154          1           0        9.976456   -3.546883   -2.390848
    155          1           0       10.523444   -5.049959   -2.349786
    156          1           0       11.541269   -3.833554   -2.561638
    157          6           0       12.048456   -4.942644   -0.176179
    158          1           0       11.807599   -5.868780   -0.384824
    159          1           0       12.206070   -4.855521    0.787565
    160          1           0       12.863194   -4.698799   -0.663335
    161          6           0       11.292263   -2.561124   -0.247244
    162          1           0       12.132569   -2.331757   -0.696644
    163          1           0       11.406675   -2.476800    0.722320
    164          1           0       10.584725   -1.953952   -0.547389
 ---------------------------------------------------------------------

 SCF Done:  E(RB3LYP) =  -4103.82157696     A.U. after   16 cycles

 Excitation energies and oscillator strengths:

 Excited State   1:      Singlet-A      1.7139 eV  723.42 nm  f=0.0000  <S**2>=0.000
     298 -> 299        0.70689
 This state for optimization and/or second-order correction.
 Total Energy, E(TD-HF/TD-KS) =  -4103.75859372
 Copying the excited state density for this state as the 1-particle RhoCI density.

 Excited State   2:      Singlet-A      1.7289 eV  717.14 nm  f=0.0000  <S**2>=0.000
     297 -> 299        0.50910
     298 -> 300       -0.49709

 Excited State   3:      Singlet-A      1.7361 eV  714.16 nm  f=0.2913  <S**2>=0.000
     297 -> 299        0.49706
     298 -> 300        0.50908

 Excited State   4:      Singlet-A      1.7596 eV  704.63 nm  f=0.0000  <S**2>=0.000
     297 -> 300        0.70689

 Excited State   5:      Singlet-A      2.7229 eV  455.34 nm  f=0.0002  <S**2>=0.000
     296 -> 300        0.68467
     298 -> 302        0.16504

 Excited State   6:      Singlet-A      2.7237 eV  455.21 nm  f=0.0003  <S**2>=0.000
     295 -> 299        0.68455
     297 -> 301       -0.16552

 Excited State   7:      Singlet-A      3.0170 eV  410.95 nm  f=0.0000  <S**2>=0.000
     296 -> 299        0.70574

 Excited State   8:      Singlet-A      3.0643 eV  404.61 nm  f=0.0000  <S**2>=0.000
     295 -> 300        0.70570

 Excited State   9:      Singlet-A      3.1568 eV  392.76 nm  f=0.0498  <S**2>=0.000
     292 -> 300        0.13637
     294 -> 300        0.62075
     298 -> 304       -0.27070
     298 -> 306        0.10898

 Excited State  10:      Singlet-A      3.1570 eV  392.72 nm  f=0.0564  <S**2>=0.000
     291 -> 299        0.15275
     293 -> 299        0.61883
     297 -> 303       -0.27259
     297 -> 305        0.12225

 Excited State  11:      Singlet-A      3.1860 eV  389.15 nm  f=0.0152  <S**2>=0.000
     291 -> 299       -0.18313
     292 -> 300        0.50688
     294 -> 300       -0.14314
     297 -> 305       -0.13140
     298 -> 302        0.15721
     298 -> 306        0.36742

 Excited State  12:      Singlet-A      3.1875 eV  388.97 nm  f=0.0710  <S**2>=0.000
     291 -> 299        0.50399
     292 -> 300        0.17401
     293 -> 299       -0.18892
     297 -> 301       -0.11343
     297 -> 305        0.36548
     298 -> 306        0.12716

 Excited State  13:      Singlet-A      3.2076 eV  386.53 nm  f=0.0030  <S**2>=0.000
     295 -> 299        0.16112
     297 -> 301        0.67096

 Excited State  14:      Singlet-A      3.2090 eV  386.36 nm  f=0.0064  <S**2>=0.000
     292 -> 300       -0.12211
     294 -> 300        0.11442
     296 -> 300       -0.15779
     298 -> 302        0.65468

 Excited State  15:      Singlet-A      3.4195 eV  362.58 nm  f=0.0000  <S**2>=0.000
     298 -> 301        0.70474

 Excited State  16:      Singlet-A      3.4687 eV  357.44 nm  f=0.0000  <S**2>=0.000
     294 -> 299        0.70486

 Excited State  17:      Singlet-A      3.4699 eV  357.32 nm  f=0.0000  <S**2>=0.000
     297 -> 302        0.70528

 Excited State  18:      Singlet-A      3.5211 eV  352.11 nm  f=0.0000  <S**2>=0.000
     293 -> 300        0.70540

 Excited State  19:      Singlet-A      3.5722 eV  347.08 nm  f=0.0016  <S**2>=0.000
     279 -> 299        0.12281
     289 -> 299        0.67969

 Excited State  20:      Singlet-A      3.5736 eV  346.95 nm  f=0.0000  <S**2>=0.000
     292 -> 299        0.70614

 Excited State  21:      Singlet-A      3.5806 eV  346.26 nm  f=0.0018  <S**2>=0.000
     280 -> 300        0.12389
     288 -> 300        0.11555
     290 -> 300        0.67435

 Excited State  22:      Singlet-A      3.6210 eV  342.40 nm  f=0.0001  <S**2>=0.000
     291 -> 300        0.70583

 Excited State  23:      Singlet-A      3.6488 eV  339.79 nm  f=0.0537  <S**2>=0.000
     288 -> 300       -0.22929
     294 -> 300        0.22701
     297 -> 303       -0.23654
     298 -> 304        0.54305

 Excited State  24:      Singlet-A      3.6526 eV  339.44 nm  f=0.3535  <S**2>=0.000
     287 -> 299       -0.20730
     293 -> 299        0.23258
     297 -> 303        0.55357
     298 -> 304        0.22628

 Excited State  25:      Singlet-A      3.7037 eV  334.75 nm  f=0.0324  <S**2>=0.000
     284 -> 300       -0.15306
     286 -> 300        0.42271
     288 -> 300        0.46175
     298 -> 304        0.23998

 The electronic state is 1-A.
 Alpha  occ. eigenvalues --  -66.11178 -66.11140 -66.11103 -66.10969 -10.21633
 Alpha  occ. eigenvalues --  -10.21566 -10.21552 -10.21477 -10.20320 -10.20265
 Alpha  occ. eigenvalues --  -10.20245 -10.20229 -10.20225 -10.20165 -10.20161
 Alpha  occ. eigenvalues --  -10.20126 -10.19405 -10.19357 -10.19319 -10.19285
 Alpha  occ. eigenvalues --  -10.19273 -10.19269 -10.19229 -10.19228 -10.18434
 Alpha  occ. eigenvalues --  -10.18376 -10.18325 -10.18317 -10.17459 -10.17365
 Alpha  occ. eigenvalues --  -10.17356 -10.17348 -10.17345 -10.17330 -10.17325
 Alpha  occ. eigenvalues --  -10.17294 -10.17293 -10.17289 -10.17285 -10.17283
 Alpha  occ. eigenvalues --  -10.17279 -10.17271 -10.17243 -10.17241 -10.17222
 Alpha  occ. eigenvalues --  -10.17214 -10.17206 -10.17203 -10.17192 -10.17186
 Alpha  occ. eigenvalues --  -10.17163 -10.17144 -10.16523 -10.16502 -10.16474
 Alpha  occ. eigenvalues --  -10.16340 -10.15813 -10.15812 -10.15746 -10.15711
 Alpha  occ. eigenvalues --  -10.13472 -10.13464 -10.13430 -10.13289 -10.13132
 Alpha  occ. eigenvalues --  -10.13083 -10.13067 -10.13055 -10.13030 -10.12959
 Alpha  occ. eigenvalues --  -10.12843 -10.12821 -10.12374 -10.12370 -10.12345
 Alpha  occ. eigenvalues --  -10.12342 -10.12335 -10.12313 -10.12260 -10.12199
 Alpha  occ. eigenvalues --   -5.25840  -5.25802  -5.25791  -5.25658  -3.61829
 Alpha  occ. eigenvalues --   -3.61790  -3.61778  -3.61659  -3.61645  -3.61621
 Alpha  occ. eigenvalues --   -3.61614  -3.61611  -3.61572  -3.61557  -3.61481
 Alpha  occ. eigenvalues --   -3.61423  -0.89364  -0.89279  -0.87473  -0.87387
 Alpha  occ. eigenvalues --   -0.85511  -0.85424  -0.82365  -0.82280  -0.81751
 Alpha  occ. eigenvalues --   -0.81666  -0.81199  -0.81159  -0.81137  -0.81000
 Alpha  occ. eigenvalues --   -0.78820  -0.78732  -0.78466  -0.78383  -0.77234
 Alpha  occ. eigenvalues --   -0.77144  -0.74427  -0.74351  -0.74187  -0.74094
 Alpha  occ. eigenvalues --   -0.73520  -0.73454  -0.73453  -0.73359  -0.72865
 Alpha  occ. eigenvalues --   -0.72786  -0.72215  -0.72127  -0.71336  -0.71319
 Alpha  occ. eigenvalues --   -0.71298  -0.71181  -0.71081  -0.71032  -0.71021
 Alpha  occ. eigenvalues --   -0.70840  -0.70461  -0.70430  -0.70419  -0.70277
 Alpha  occ. eigenvalues --   -0.69202  -0.69118  -0.67725  -0.67639  -0.63187
 Alpha  occ. eigenvalues --   -0.63102  -0.62868  -0.62807  -0.62784  -0.62723
 Alpha  occ. eigenvalues --   -0.61487  -0.61394  -0.61208  -0.61127  -0.58899
 Alpha  occ. eigenvalues --   -0.58813  -0.56690  -0.56602  -0.56531  -0.56409
 Alpha  occ. eigenvalues --   -0.54143  -0.54058  -0.53833  -0.53750  -0.53275
 Alpha  occ. eigenvalues --   -0.53189  -0.52502  -0.52415  -0.52076  -0.51985
 Alpha  occ. eigenvalues --   -0.49632  -0.49538  -0.49105  -0.49012  -0.48667
 Alpha  occ. eigenvalues --   -0.48581  -0.48224  -0.48130  -0.47192  -0.47112
 Alpha  occ. eigenvalues --   -0.46446  -0.46353  -0.46141  -0.46041  -0.45451
 Alpha  occ. eigenvalues --   -0.45365  -0.45156  -0.45108  -0.45079  -0.44913
 Alpha  occ. eigenvalues --   -0.44623  -0.44557  -0.44543  -0.44383  -0.44156
 Alpha  occ. eigenvalues --   -0.44069  -0.43748  -0.43662  -0.43479  -0.43418
 Alpha  occ. eigenvalues --   -0.43416  -0.43371  -0.43350  -0.43291  -0.43261
 Alpha  occ. eigenvalues --   -0.43201  -0.42575  -0.42488  -0.41946  -0.41934
 Alpha  occ. eigenvalues --   -0.41899  -0.41842  -0.41796  -0.41766  -0.41737
 Alpha  occ. eigenvalues --   -0.41708  -0.41338  -0.41253  -0.41252  -0.41230
 Alpha  occ. eigenvalues --   -0.41206  -0.41124  -0.40948  -0.40862  -0.40530
 Alpha  occ. eigenvalues --   -0.40484  -0.40424  -0.40240  -0.40107  -0.40021
 Alpha  occ. eigenvalues --   -0.39989  -0.39942  -0.39939  -0.39779  -0.38908
 Alpha  occ. eigenvalues --   -0.38824  -0.38809  -0.38724  -0.38475  -0.38420
 Alpha  occ. eigenvalues --   -0.38390  -0.38224  -0.37025  -0.36939  -0.36542
 Alpha  occ. eigenvalues --   -0.36456  -0.36003  -0.35917  -0.34818  -0.34789
 Alpha  occ. eigenvalues --   -0.34767  -0.34671  -0.34056  -0.33972  -0.33729
 Alpha  occ. eigenvalues --   -0.33643  -0.33591  -0.33511  -0.32942  -0.32855
 Alpha  occ. eigenvalues --   -0.32504  -0.32444  -0.32429  -0.32313  -0.32279
 Alpha  occ. eigenvalues --   -0.32193  -0.31758  -0.31714  -0.31704  -0.31550
 Alpha  occ. eigenvalues --   -0.30288  -0.30206  -0.30036  -0.29933  -0.28991
 Alpha  occ. eigenvalues --   -0.28908  -0.28680  -0.28592  -0.28263  -0.28207
 Alpha  occ. eigenvalues --   -0.27956  -0.27866  -0.27103  -0.26987  -0.26095
 Alpha  occ. eigenvalues --   -0.25989  -0.25413  -0.25308  -0.25150  -0.25095
 Alpha  occ. eigenvalues --   -0.23728  -0.23640  -0.23330  -0.23243  -0.21681
 Alpha  occ. eigenvalues --   -0.21593  -0.16879  -0.16793
 Alpha virt. eigenvalues --   -0.09711  -0.09625  -0.03425  -0.03340  -0.01888
 Alpha virt. eigenvalues --   -0.01801  -0.01499  -0.01413   0.01727   0.01813
 Alpha virt. eigenvalues --    0.02396   0.02493   0.02815   0.02885   0.02889

 Mulliken atomic charges:
              1
     1  Si   0.558404
     2  Si   0.566652
     3  C   -0.072703
     4  C    0.111678
     5  C   -0.167624
     6  H    0.063173
     7  C    0.106391
     8  C   -0.082055
     9  H    0.056498
    10  C   -0.063878
    11  H    0.059823
    12  C   -0.062538
    13  H    0.059617
    14  C   -0.082518
    15  H    0.057213
    16  C    0.103752
    17  C   -0.168964
    18  H    0.064106
    19  C    0.113363
    20  C   -0.073559
    21  C    0.110875
    22  C   -0.162984
    23  H    0.063866
    24  C    0.107264
    25  C   -0.086050
    26  H    0.058170
    27  C   -0.064122
    28  H    0.061098
    29  C   -0.061301
    30  H    0.059798
    31  C   -0.086412
    32  H    0.058301
    33  C    0.092093
    34  C   -0.150325
    35  H    0.065682
    36  C    0.099072
    37  C    0.356447
    38  C   -0.566494
    39  C   -0.519565
    40  H    0.127478
    41  H    0.118807
    42  H    0.129719
    43  C   -0.520906
    44  H    0.129127
    45  H    0.119994
    46  H    0.127634
    47  C   -0.187472
    48  C   -0.293529
    49  H    0.101964
    50  H    0.102265
    51  H    0.095603
    52  C   -0.295235
    53  H    0.115965
    54  H    0.101997
    55  H    0.089794
    56  C   -0.295099
    57  H    0.090416
    58  H    0.100843
    59  H    0.114832
    60  C    0.375115
    61  C   -0.584544
    62  C   -0.519558
    63  H    0.123951
    64  H    0.118667
    65  H    0.128623
    66  C   -0.521268
    67  H    0.129912
    68  H    0.119568
    69  H    0.126997
    70  C   -0.185652
    71  C   -0.291802
    72  H    0.115508
    73  H    0.098237
    74  H    0.091658
    75  C   -0.293797
    76  H    0.100957
    77  H    0.101725
    78  H    0.097698
    79  C   -0.297190
    80  H    0.096018
    81  H    0.096719
    82  H    0.115973
    83  Si   0.558562
    84  Si   0.566555
    85  C   -0.072399
    86  C    0.111564
    87  C   -0.167197
    88  H    0.063886
    89  C    0.106046
    90  C   -0.081577
    91  H    0.057774
    92  C   -0.063694
    93  H    0.061594
    94  C   -0.062826
    95  H    0.060081
    96  C   -0.083108
    97  H    0.056882
    98  C    0.104075
    99  C   -0.169265
   100  H    0.063899
   101  C    0.113538
   102  C   -0.073896
   103  C    0.111082
   104  C   -0.163453
   105  H    0.063448
   106  C    0.107410
   107  C   -0.086378
   108  H    0.057111
   109  C   -0.064485
   110  H    0.059634
   111  C   -0.061666
   112  H    0.059651
   113  C   -0.086172
   114  H    0.058682
   115  C    0.091758
   116  C   -0.150090
   117  H    0.065941
   118  C    0.098805
   119  C    0.356238
   120  C   -0.565892
   121  C   -0.519594
   122  H    0.127599
   123  H    0.118986
   124  H    0.130069
   125  C   -0.520923
   126  H    0.129839
   127  H    0.120007
   128  H    0.127406
   129  C   -0.187439
   130  C   -0.293518
   131  H    0.101955
   132  H    0.102550
   133  H    0.095594
   134  C   -0.295295
   135  H    0.115630
   136  H    0.101966
   137  H    0.089667
   138  C   -0.295141
   139  H    0.090257
   140  H    0.101247
   141  H    0.114532
   142  C    0.375440
   143  C   -0.584995
   144  C   -0.519553
   145  H    0.123550
   146  H    0.118594
   147  H    0.128748
   148  C   -0.521271
   149  H    0.129928
   150  H    0.119677
   151  H    0.127495
   152  C   -0.185705
   153  C   -0.291187
   154  H    0.116129
   155  H    0.098981
   156  H    0.091451
   157  C   -0.293532
   158  H    0.101912
   159  H    0.101278
   160  H    0.096569
   161  C   -0.296515
   162  H    0.092149
   163  H    0.096495
   164  H    0.116891
 Sum of Mulliken atomic charges =   0.00000

 Dipole moment (field-independent basis, Debye):
    X=              1.3251    Y=              0.6536    Z=             -0.2888  Tot=              1.5055
 Quadrupole moment (field-independent basis, Debye-Ang):
   XX=           -465.7961   YY=           -444.5026   ZZ=           -488.3512
   XY=             -7.7910   XZ=             27.8597   YZ=              4.0314

 Normal termination of Gaussian 09 at Fri Jan  6 06:01:35 2012.
