 Gaussian 09, Revision A.02,
 Gaussian 09:  EM64L-G09RevA.02 11-Jun-2009

 ---------------------------------------------------------
 #p scf=verytight b3lyp/6-31g(d,p) td(singlets,nstates=25)
 ---------------------------------------------------------

 ----------------
 CSD ENTRY k01071
 ----------------
 Symbolic Z-matrix:
 Charge =  0 Multiplicity = 1

                         Standard orientation:
 ---------------------------------------------------------------------
 Center     Atomic      Atomic             Coordinates (Angstroms)
 Number     Number       Type             X           Y           Z
 ---------------------------------------------------------------------
      1         14           0       -1.900112   -4.886355    1.210186
      2          6           0        1.592433   -2.141404    0.971029
      3          6           0        1.212554   -0.794972    1.228765
      4          6           0       -0.107282   -0.458586    1.583618
      5          1           0       -0.755722   -1.149833    1.654113
      6          6           0       -0.490572    0.848898    1.833904
      7          6           0       -1.839289    1.187574    2.173903
      8          1           0       -2.492614    0.501123    2.239284
      9          6           0       -2.195807    2.475972    2.403794
     10          1           0       -3.094782    2.682414    2.630021
     11          6           0       -1.234177    3.520639    2.309055
     12          1           0       -1.495014    4.417152    2.483695
     13          6           0        0.047608    3.250371    1.975499
     14          1           0        0.672038    3.963022    1.905575
     15          6           0        0.479304    1.905770    1.724741
     16          6           0        1.783198    1.587840    1.378956
     17          1           0        2.425291    2.285368    1.313962
     18          6           0        2.190239    0.259905    1.121618
     19          6           0        0.594169   -3.159735    1.070504
     20          6           0       -0.319644   -3.946521    1.148240
     21          6           0       -2.564788   -5.031806   -0.513065
     22          1           0       -2.825100   -4.144347   -0.837288
     23          1           0       -3.347934   -5.620965   -0.511898
     24          1           0       -1.875158   -5.404899   -1.099436
     25          6           0       -3.092184   -3.882690    2.220496
     26          1           0       -2.775022   -3.834109    3.146821
     27          1           0       -3.976037   -4.305861    2.198948
     28          1           0       -3.154279   -2.978307    1.849143
     29          6           0       -1.628960   -6.555950    1.968254
     30          1           0       -1.003720   -7.068849    1.414169
     31          1           0       -2.484027   -7.032907    2.024631
     32          1           0       -1.254543   -6.449122    2.868306
     33         14           0        7.015515    2.685532    0.525600
     34          6           0        3.522969   -0.059419    0.764756
     35          6           0        3.902849   -1.405850    0.507020
     36          6           0        5.222685   -1.742236    0.152167
     37          1           0        5.871125   -1.050990    0.081672
     38          6           0        5.605975   -3.049721   -0.098119
     39          6           0        6.954692   -3.388397   -0.438118
     40          1           0        7.608017   -2.701945   -0.503499
     41          6           0        7.311210   -4.676795   -0.668009
     42          1           0        8.210185   -4.883237   -0.894236
     43          6           0        6.349580   -5.721461   -0.573269
     44          1           0        6.610417   -6.617975   -0.747910
     45          6           0        5.067794   -5.451193   -0.239714
     46          1           0        4.443365   -6.163844   -0.169790
     47          6           0        4.636098   -4.106592    0.011044
     48          6           0        3.332204   -3.788662    0.356829
     49          1           0        2.690111   -4.486191    0.421823
     50          6           0        2.925164   -2.460728    0.614167
     51          6           0        4.521233    0.958912    0.665282
     52          6           0        5.435046    1.745698    0.587545
     53          6           0        7.680191    2.830984    2.248850
     54          1           0        7.940503    1.943524    2.573073
     55          1           0        8.463337    3.420143    2.247683
     56          1           0        6.990561    3.204077    2.835221
     57          6           0        8.207587    1.681868   -0.484711
     58          1           0        7.890425    1.633286   -1.411036
     59          1           0        9.091440    2.105038   -0.463163
     60          1           0        8.269681    0.777484   -0.113358
     61          6           0        6.744363    4.355127   -0.232469
     62          1           0        6.119123    4.868026    0.321616
     63          1           0        7.599430    4.832084   -0.288846
     64          1           0        6.369946    4.248299   -1.132521
     65         14           0       -7.015535   -2.685559   -0.525618
     66          6           0       -3.523001    0.059432   -0.764771
     67          6           0       -3.902823    1.405845   -0.507014
     68          6           0       -5.222674    1.742228   -0.152162
     69          1           0       -5.871131    1.050993   -0.081677
     70          6           0       -5.605979    3.049729    0.098113
     71          6           0       -6.954699    3.388400    0.438113
     72          1           0       -7.608032    2.701955    0.503499
     73          6           0       -7.311246    4.676812    0.667995
     74          1           0       -8.210179    4.883233    0.894240
     75          6           0       -6.349595    5.721471    0.573266
     76          1           0       -6.610398    6.617967    0.747911
     77          6           0       -5.067816    5.451205    0.239701
     78          1           0       -4.443400    6.163860    0.169774
     79          6           0       -4.636115    4.106599   -0.011049
     80          6           0       -3.332170    3.788650   -0.356812
     81          1           0       -2.690146    4.486204   -0.421833
     82          6           0       -2.925150    2.460724   -0.614158
     83          6           0       -4.521239   -0.958910   -0.665290
     84          6           0       -5.435053   -1.745695   -0.587546
     85          6           0       -7.680173   -2.830983   -2.248846
     86          1           0       -7.940466   -1.943493   -2.573042
     87          1           0       -8.463351   -3.420112   -2.247680
     88          1           0       -6.990508   -3.204061   -2.835188
     89          6           0       -8.207548   -1.681887    0.484727
     90          1           0       -7.890437   -1.633272    1.411012
     91          1           0       -9.091421   -2.105033    0.463150
     92          1           0       -8.269650   -0.777497    0.113373
     93          6           0       -6.744393   -4.355099    0.232460
     94          1           0       -6.119116   -4.868015   -0.321607
     95          1           0       -7.599434   -4.832056    0.288886
     96          1           0       -6.369991   -4.248331    1.132526
     97         14           0        1.900139    4.886343   -1.210172
     98          6           0       -1.592472    2.141419   -0.971042
     99          6           0       -1.212561    0.794977   -1.228765
    100          6           0        0.107288    0.458585   -1.583621
    101          1           0        0.755746    1.149820   -1.654106
    102          6           0        0.490578   -0.848899   -1.833898
    103          6           0        1.839287   -1.187576   -2.173905
    104          1           0        2.492621   -0.501122   -2.239286
    105          6           0        2.195810   -2.475968   -2.403792
    106          1           0        3.094782   -2.682411   -2.630014
    107          6           0        1.234182   -3.520647   -2.309059
    108          1           0        1.495014   -4.417145   -2.483690
    109          6           0       -0.047603   -3.250368   -1.975492
    110          1           0       -0.672037   -3.963016   -1.905570
    111          6           0       -0.479269   -1.905777   -1.724730
    112          6           0       -1.783218   -1.587831   -1.378958
    113          1           0       -2.425326   -2.285345   -1.313976
    114          6           0       -2.190238   -0.259906   -1.121613
    115          6           0       -0.594147    3.159724   -1.070494
    116          6           0        0.319669    3.946517   -1.148233
    117          6           0        2.564789    5.031805    0.513067
    118          1           0        2.825099    4.144345    0.837285
    119          1           0        3.347936    5.620966    0.511899
    120          1           0        1.875131    5.404913    1.099426
    121          6           0        3.092187    3.882687   -2.220497
    122          1           0        2.775024    3.834106   -3.146821
    123          1           0        3.976036    4.305865   -2.198947
    124          1           0        3.154279    2.978308   -1.849138
    125          6           0        1.628925    6.555967   -1.968266
    126          1           0        1.003733    7.068845   -1.414164
    127          1           0        2.484046    7.032901   -2.024625
    128          1           0        1.254582    6.449106   -2.868294
 ---------------------------------------------------------------------

 SCF Done:  E(RB3LYP) =  -3632.28265486     A.U. after   17 cycles

 Excitation energies and oscillator strengths:

 Excited State   1:      Singlet-A      1.2995 eV  954.10 nm  f=0.0000  <S**2>=0.000
     249 -> 251        0.69120
     250 -> 252       -0.15029
 This state for optimization and/or second-order correction.
 Total Energy, E(TD-HF/TD-KS) =  -3632.23489957
 Copying the excited state density for this state as the 1-particle RhoCI density.

 Excited State   2:      Singlet-A      1.3343 eV  929.19 nm  f=0.0917  <S**2>=0.000
     249 -> 252       -0.16820
     250 -> 251        0.68698

 Excited State   3:      Singlet-A      1.7789 eV  696.95 nm  f=0.0000  <S**2>=0.000
     249 -> 251        0.15605
     250 -> 252        0.68942

 Excited State   4:      Singlet-A      1.8596 eV  666.74 nm  f=0.1522  <S**2>=0.000
     249 -> 252        0.68397
     250 -> 251        0.17568

 Excited State   5:      Singlet-A      2.3795 eV  521.05 nm  f=0.0000  <S**2>=0.000
     248 -> 251        0.69914

 Excited State   6:      Singlet-A      2.4244 eV  511.41 nm  f=0.0054  <S**2>=0.000
     247 -> 251        0.69812

 Excited State   7:      Singlet-A      2.7507 eV  450.74 nm  f=0.0000  <S**2>=0.000
     246 -> 251        0.66691
     247 -> 252       -0.12883
     250 -> 257       -0.10113

 Excited State   8:      Singlet-A      2.8163 eV  440.24 nm  f=0.0182  <S**2>=0.000
     248 -> 252        0.68220
     249 -> 253       -0.13118

 Excited State   9:      Singlet-A      2.8389 eV  436.74 nm  f=0.0000  <S**2>=0.000
     245 -> 251       -0.35524
     247 -> 252        0.56491
     250 -> 253        0.16790

 Excited State  10:      Singlet-A      2.9747 eV  416.80 nm  f=0.0000  <S**2>=0.000
     245 -> 251        0.56832
     246 -> 251        0.10548
     247 -> 252        0.36749

 Excited State  11:      Singlet-A      3.0691 eV  403.97 nm  f=0.0112  <S**2>=0.000
     244 -> 251        0.32424
     246 -> 252       -0.16110
     248 -> 252        0.13838
     249 -> 253        0.54377
     250 -> 255        0.16390

 Excited State  12:      Singlet-A      3.0853 eV  401.85 nm  f=0.0000  <S**2>=0.000
     245 -> 251        0.12267
     247 -> 252       -0.12828
     250 -> 253        0.67138

 Excited State  13:      Singlet-A      3.1168 eV  397.79 nm  f=0.0669  <S**2>=0.000
     243 -> 251        0.12214
     244 -> 251        0.51144
     245 -> 252       -0.10197
     246 -> 252        0.17952
     249 -> 253       -0.29942
     249 -> 257       -0.20974
     250 -> 258        0.14300

 Excited State  14:      Singlet-A      3.1665 eV  391.55 nm  f=0.0921  <S**2>=0.000
     243 -> 251        0.13492
     244 -> 251       -0.15016
     245 -> 252       -0.10491
     246 -> 252        0.51253
     249 -> 253        0.26871
     249 -> 256        0.16788
     249 -> 257       -0.17821
     250 -> 258        0.17083

 Excited State  15:      Singlet-A      3.2287 eV  384.01 nm  f=0.0104  <S**2>=0.000
     244 -> 251       -0.14324
     245 -> 252       -0.14750
     250 -> 254        0.64504
     250 -> 255       -0.12620

 Excited State  16:      Singlet-A      3.2565 eV  380.73 nm  f=0.0000  <S**2>=0.000
     249 -> 254        0.67923

 Excited State  17:      Singlet-A      3.2784 eV  378.18 nm  f=0.0081  <S**2>=0.000
     243 -> 251        0.58747
     245 -> 252        0.11933
     246 -> 252       -0.28529
     249 -> 257       -0.11605
     250 -> 258        0.10084

 Excited State  18:      Singlet-A      3.4012 eV  364.53 nm  f=0.0067  <S**2>=0.000
     242 -> 251       -0.14160
     244 -> 251        0.17016
     245 -> 252        0.55430
     246 -> 252        0.16302
     249 -> 257        0.10802
     250 -> 254        0.14676
     250 -> 255       -0.24712

 Excited State  19:      Singlet-A      3.4295 eV  361.52 nm  f=0.0000  <S**2>=0.000
     241 -> 251        0.16753
     244 -> 252        0.39023
     245 -> 251        0.11306
     249 -> 255        0.48690
     250 -> 256       -0.10358
     250 -> 257       -0.19590

 Excited State  20:      Singlet-A      3.4998 eV  354.26 nm  f=0.0513  <S**2>=0.000
     242 -> 251        0.57986
     244 -> 251        0.15033
     246 -> 252       -0.10161
     250 -> 255       -0.33030

 Excited State  21:      Singlet-A      3.5141 eV  352.82 nm  f=0.0723  <S**2>=0.000
     242 -> 251        0.30984
     245 -> 252        0.23871
     249 -> 256        0.21750
     250 -> 254        0.13404
     250 -> 255        0.50300

 Excited State  22:      Singlet-A      3.5159 eV  352.64 nm  f=0.0000  <S**2>=0.000
     239 -> 251       -0.10879
     241 -> 251        0.13143
     243 -> 252        0.38098
     246 -> 251       -0.11453
     249 -> 255       -0.32032
     249 -> 258        0.16161
     250 -> 256        0.14177
     250 -> 257       -0.37307

 Excited State  23:      Singlet-A      3.5499 eV  349.26 nm  f=0.0000  <S**2>=0.000
     243 -> 252        0.13148
     244 -> 252       -0.24504
     249 -> 254        0.12568
     249 -> 255        0.30910
     250 -> 256        0.53948

 Excited State  24:      Singlet-A      3.6183 eV  342.66 nm  f=0.0181  <S**2>=0.000
     239 -> 252       -0.17013
     240 -> 251        0.65409
     249 -> 256        0.13688

 Excited State  25:      Singlet-A      3.6346 eV  341.12 nm  f=0.0000  <S**2>=0.000
     239 -> 251        0.62729
     240 -> 252       -0.18454
     241 -> 251       -0.16851
     250 -> 257       -0.13254

 The electronic state is 1-A.
 Alpha  occ. eigenvalues --  -66.11707 -66.11707 -66.11435 -66.11435 -10.21138
 Alpha  occ. eigenvalues --  -10.21138 -10.20941 -10.20941 -10.19866 -10.19866
 Alpha  occ. eigenvalues --  -10.19783 -10.19782 -10.19770 -10.19769 -10.19562
 Alpha  occ. eigenvalues --  -10.19562 -10.19147 -10.19147 -10.19083 -10.19083
 Alpha  occ. eigenvalues --  -10.18615 -10.18615 -10.18412 -10.18411 -10.18209
 Alpha  occ. eigenvalues --  -10.18209 -10.17704 -10.17704 -10.17223 -10.17223
 Alpha  occ. eigenvalues --  -10.17205 -10.17205 -10.17144 -10.17144 -10.17107
 Alpha  occ. eigenvalues --  -10.17107 -10.17083 -10.17083 -10.17045 -10.17045
 Alpha  occ. eigenvalues --  -10.16784 -10.16784 -10.16444 -10.16444 -10.16412
 Alpha  occ. eigenvalues --  -10.16412 -10.16312 -10.16312 -10.16270 -10.16270
 Alpha  occ. eigenvalues --  -10.16104 -10.16104 -10.15711 -10.15711 -10.15204
 Alpha  occ. eigenvalues --  -10.15204 -10.12736 -10.12736 -10.12441 -10.12440
 Alpha  occ. eigenvalues --  -10.12395 -10.12395 -10.12308 -10.12308 -10.12297
 Alpha  occ. eigenvalues --  -10.12296 -10.11861 -10.11861  -5.26375  -5.26375
 Alpha  occ. eigenvalues --   -5.26091  -5.26090  -3.62349  -3.62349  -3.62186
 Alpha  occ. eigenvalues --   -3.62186  -3.62173  -3.62173  -3.62063  -3.62063
 Alpha  occ. eigenvalues --   -3.61906  -3.61905  -3.61890  -3.61889  -0.89087
 Alpha  occ. eigenvalues --   -0.88739  -0.87040  -0.86876  -0.85233  -0.84810
 Alpha  occ. eigenvalues --   -0.82002  -0.81714  -0.81344  -0.81311  -0.78372
 Alpha  occ. eigenvalues --   -0.78353  -0.78009  -0.77974  -0.76857  -0.76685
 Alpha  occ. eigenvalues --   -0.74985  -0.74842  -0.74535  -0.74409  -0.73846
 Alpha  occ. eigenvalues --   -0.73572  -0.73328  -0.73286  -0.72962  -0.72938
 Alpha  occ. eigenvalues --   -0.71965  -0.71824  -0.71302  -0.71301  -0.71127
 Alpha  occ. eigenvalues --   -0.71127  -0.70992  -0.70991  -0.70662  -0.70658
 Alpha  occ. eigenvalues --   -0.68829  -0.68804  -0.67348  -0.67080  -0.62756
 Alpha  occ. eigenvalues --   -0.62660  -0.62554  -0.62463  -0.62302  -0.62257
 Alpha  occ. eigenvalues --   -0.61206  -0.61097  -0.60683  -0.60583  -0.58336
 Alpha  occ. eigenvalues --   -0.58330  -0.53742  -0.53702  -0.53360  -0.53307
 Alpha  occ. eigenvalues --   -0.52892  -0.52861  -0.52470  -0.52456  -0.52183
 Alpha  occ. eigenvalues --   -0.52074  -0.49680  -0.49669  -0.48712  -0.48667
 Alpha  occ. eigenvalues --   -0.48174  -0.48021  -0.47653  -0.47495  -0.46888
 Alpha  occ. eigenvalues --   -0.46879  -0.45094  -0.45003  -0.44268  -0.44265
 Alpha  occ. eigenvalues --   -0.44222  -0.43977  -0.43906  -0.43814  -0.43484
 Alpha  occ. eigenvalues --   -0.43429  -0.43296  -0.43282  -0.43216  -0.43169
 Alpha  occ. eigenvalues --   -0.43078  -0.43073  -0.42802  -0.42787  -0.42763
 Alpha  occ. eigenvalues --   -0.42719  -0.42488  -0.42325  -0.42299  -0.42103
 Alpha  occ. eigenvalues --   -0.42074  -0.41809  -0.41802  -0.41545  -0.41534
 Alpha  occ. eigenvalues --   -0.41387  -0.41335  -0.41173  -0.41155  -0.40725
 Alpha  occ. eigenvalues --   -0.40504  -0.40487  -0.40344  -0.40286  -0.40157
 Alpha  occ. eigenvalues --   -0.40142  -0.39475  -0.39434  -0.38582  -0.38460
 Alpha  occ. eigenvalues --   -0.38401  -0.37786  -0.37103  -0.36749  -0.36687
 Alpha  occ. eigenvalues --   -0.35435  -0.35415  -0.35313  -0.34930  -0.34925
 Alpha  occ. eigenvalues --   -0.34624  -0.34624  -0.33550  -0.33475  -0.33254
 Alpha  occ. eigenvalues --   -0.33229  -0.33072  -0.33061  -0.32458  -0.32457
 Alpha  occ. eigenvalues --   -0.32182  -0.31259  -0.30978  -0.30906  -0.30825
 Alpha  occ. eigenvalues --   -0.30687  -0.30440  -0.30409  -0.30213  -0.30095
 Alpha  occ. eigenvalues --   -0.28848  -0.28722  -0.27995  -0.27788  -0.27679
 Alpha  occ. eigenvalues --   -0.26976  -0.26312  -0.26285  -0.25889  -0.25789
 Alpha  occ. eigenvalues --   -0.25437  -0.24880  -0.24089  -0.23388  -0.22730
 Alpha  occ. eigenvalues --   -0.22102  -0.20854  -0.20791  -0.16417  -0.16337
 Alpha virt. eigenvalues --   -0.10112  -0.08487  -0.03299  -0.02755  -0.01782
 Alpha virt. eigenvalues --   -0.01345  -0.01228  -0.00712   0.02123   0.02159
 Alpha virt. eigenvalues --    0.02548   0.02570   0.02668   0.03130   0.03164

 Mulliken atomic charges:
              1
     1  Si   0.561011
     2  C   -0.062853
     3  C    0.097266
     4  C   -0.157653
     5  H    0.067854
     6  C    0.096893
     7  C   -0.086128
     8  H    0.059115
     9  C   -0.059385
    10  H    0.064608
    11  C   -0.066645
    12  H    0.053039
    13  C   -0.036914
    14  H    0.025879
    15  C    0.108090
    16  C   -0.154534
    17  H    0.040820
    18  C    0.126437
    19  C    0.428714
    20  C   -0.636190
    21  C   -0.530696
    22  H    0.140589
    23  H    0.116728
    24  H    0.129586
    25  C   -0.525563
    26  H    0.123371
    27  H    0.117934
    28  H    0.137865
    29  C   -0.518603
    30  H    0.126827
    31  H    0.120527
    32  H    0.131407
    33  Si   0.556662
    34  C   -0.083852
    35  C    0.100306
    36  C   -0.167478
    37  H    0.064872
    38  C    0.094105
    39  C   -0.083093
    40  H    0.055190
    41  C   -0.065938
    42  H    0.058382
    43  C   -0.062618
    44  H    0.058518
    45  C   -0.084432
    46  H    0.055576
    47  C    0.108101
    48  C   -0.172976
    49  H    0.060253
    50  C    0.123658
    51  C    0.406400
    52  C   -0.627328
    53  C   -0.515255
    54  H    0.129150
    55  H    0.118587
    56  H    0.129197
    57  C   -0.521560
    58  H    0.125576
    59  H    0.119903
    60  H    0.126184
    61  C   -0.527264
    62  H    0.129038
    63  H    0.121563
    64  H    0.131170
    65  Si   0.556666
    66  C   -0.083822
    67  C    0.100302
    68  C   -0.167482
    69  H    0.064875
    70  C    0.094109
    71  C   -0.083109
    72  H    0.055190
    73  C   -0.065915
    74  H    0.058370
    75  C   -0.062609
    76  H    0.058509
    77  C   -0.084429
    78  H    0.055574
    79  C    0.108071
    80  C   -0.172961
    81  H    0.060244
    82  C    0.123708
    83  C    0.406383
    84  C   -0.627330
    85  C   -0.515251
    86  H    0.129155
    87  H    0.118591
    88  H    0.129204
    89  C   -0.521556
    90  H    0.125579
    91  H    0.119897
    92  H    0.126181
    93  C   -0.527257
    94  H    0.129038
    95  H    0.121564
    96  H    0.131171
    97  Si   0.561005
    98  C   -0.062877
    99  C    0.097255
   100  C   -0.157652
   101  H    0.067854
   102  C    0.096911
   103  C   -0.086138
   104  H    0.059117
   105  C   -0.059379
   106  H    0.064606
   107  C   -0.066643
   108  H    0.053033
   109  C   -0.036911
   110  H    0.025880
   111  C    0.108068
   112  C   -0.154531
   113  H    0.040821
   114  C    0.126419
   115  C    0.428713
   116  C   -0.636186
   117  C   -0.530694
   118  H    0.140592
   119  H    0.116732
   120  H    0.129588
   121  C   -0.525561
   122  H    0.123373
   123  H    0.117934
   124  H    0.137866
   125  C   -0.518604
   126  H    0.126827
   127  H    0.120519
   128  H    0.131408
 Sum of Mulliken atomic charges =   0.00000

 Dipole moment (field-independent basis, Debye):
    X=             -0.0004    Y=             -0.0005    Z=              0.0001  Tot=              0.0006
 Quadrupole moment (field-independent basis, Debye-Ang):
   XX=           -366.0993   YY=           -375.5637   ZZ=           -428.4498
   XY=             10.8095   XZ=            -12.7359   YZ=              6.7304

 Normal termination of Gaussian 09 at Fri Jan  6 07:10:01 2012.
