 Gaussian 09, Revision A.02,
 Gaussian 09:  EM64L-G09RevA.02 11-Jun-2009

 ---------------------------------------------------------
 #p scf=verytight b3lyp/6-31g(d,p) td(singlets,nstates=25)
 ---------------------------------------------------------

 ----------------
 CSD ENTRY k01071
 ----------------
 Symbolic Z-matrix:
 Charge =  0 Multiplicity = 1

                         Standard orientation:
 ---------------------------------------------------------------------
 Center     Atomic      Atomic             Coordinates (Angstroms)
 Number     Number       Type             X           Y           Z
 ---------------------------------------------------------------------
      1         14           0        0.516734    1.650058    3.058341
      2          6           0        4.498535    0.636491    1.353122
      3          6           0        4.716133   -0.769273    1.343602
      4          6           0        3.720490   -1.670154    1.765681
      5          1           0        2.884401   -1.327650    2.060491
      6          6           0        3.921099   -3.040856    1.764285
      7          6           0        2.912249   -3.951246    2.214563
      8          1           0        2.077228   -3.613599    2.516320
      9          6           0        3.133748   -5.289477    2.215672
     10          1           0        2.452551   -5.879090    2.516142
     11          6           0        4.377987   -5.817208    1.770246
     12          1           0        4.515546   -6.757064    1.765675
     13          6           0        5.365736   -4.995083    1.351033
     14          1           0        6.193642   -5.366033    1.068828
     15          6           0        5.184092   -3.572552    1.326447
     16          6           0        6.172071   -2.696513    0.905451
     17          1           0        7.003701   -3.048440    0.609489
     18          6           0        5.983026   -1.296676    0.899818
     19          6           0        3.237013    1.125448    1.814543
     20          6           0        2.156064    1.447578    2.248029
     21          6           0        0.788584    1.955542    4.865360
     22          1           0        1.163442    1.149865    5.278679
     23          1           0       -0.066698    2.172715    5.291691
     24          1           0        1.411118    2.702333    4.981011
     25          6           0       -0.391447    0.042148    2.861010
     26          1           0       -0.581105   -0.111438    1.911552
     27          1           0       -1.233574    0.078825    3.361219
     28          1           0        0.161233   -0.689545    3.205742
     29          6           0       -0.422389    3.043404    2.275798
     30          1           0        0.071905    3.880874    2.399560
     31          1           0       -1.305741    3.119256    2.695015
     32          1           0       -0.529828    2.867108    1.317116
     33         14           0       10.978927   -1.418957   -1.232835
     34          6           0        6.997126   -0.405390    0.472384
     35          6           0        6.779528    1.000374    0.481903
     36          6           0        7.775172    1.901255    0.059824
     37          1           0        8.611260    1.558751   -0.234985
     38          6           0        7.574562    3.271957    0.061221
     39          6           0        8.583412    4.182347   -0.389057
     40          1           0        9.418433    3.844700   -0.690814
     41          6           0        8.361914    5.520578   -0.390166
     42          1           0        9.043110    6.110191   -0.690636
     43          6           0        7.117675    6.048309    0.055260
     44          1           0        6.980115    6.988165    0.059831
     45          6           0        6.129925    5.226184    0.474473
     46          1           0        5.302019    5.597134    0.756678
     47          6           0        6.311570    3.803653    0.499059
     48          6           0        5.323590    2.927614    0.920055
     49          1           0        4.491960    3.279541    1.216017
     50          6           0        5.512635    1.527777    0.925687
     51          6           0        8.258648   -0.894347    0.010963
     52          6           0        9.339597   -1.216477   -0.422524
     53          6           0       10.707077   -1.724441   -3.039855
     54          1           0       10.332219   -0.918764   -3.453174
     55          1           0       11.562359   -1.941614   -3.466185
     56          1           0       10.084543   -2.471232   -3.155505
     57          6           0       11.887108    0.188953   -1.035504
     58          1           0       12.076766    0.342539   -0.086047
     59          1           0       12.729236    0.152276   -1.535714
     60          1           0       11.334429    0.920646   -1.380237
     61          6           0       11.918051   -2.812303   -0.450293
     62          1           0       11.423756   -3.649773   -0.574054
     63          1           0       12.801402   -2.888155   -0.869509
     64          1           0       12.025489   -2.636007    0.508389
     65         14           0      -10.978888    1.418959    1.232827
     66          6           0       -6.997157    0.405387   -0.472395
     67          6           0       -6.779589   -1.000397   -0.481895
     68          6           0       -7.775128   -1.901224   -0.059844
     69          1           0       -8.611282   -1.558739    0.234952
     70          6           0       -7.574539   -3.271937   -0.061228
     71          6           0       -8.583372   -4.182331    0.389056
     72          1           0       -9.418472   -3.844691    0.690782
     73          6           0       -8.361885   -5.520583    0.390188
     74          1           0       -9.043060   -6.110165    0.690624
     75          6           0       -7.117632   -6.048294   -0.055249
     76          1           0       -6.980089   -6.988189   -0.059775
     77          6           0       -6.129906   -5.226180   -0.474470
     78          1           0       -5.301979   -5.597136   -0.756651
     79          6           0       -6.311597   -3.803648   -0.499087
     80          6           0       -5.323583   -2.927626   -0.920024
     81          1           0       -4.492005   -3.279548   -1.216036
     82          6           0       -5.512670   -1.527805   -0.925658
     83          6           0       -8.258638    0.894331   -0.011006
     84          6           0       -9.339598    1.216498    0.422505
     85          6           0      -10.707118    1.724444    3.039907
     86          1           0      -10.332226    0.918742    3.453202
     87          1           0      -11.562322    1.941642    3.466211
     88          1           0      -10.084583    2.471226    3.155505
     89          6           0      -11.887087   -0.188989    1.035513
     90          1           0      -12.076739   -0.342565    0.086025
     91          1           0      -12.729223   -0.152212    1.535712
     92          1           0      -11.334463   -0.920693    1.380223
     93          6           0      -11.918039    2.812328    0.450328
     94          1           0      -11.423733    3.649823    0.574054
     95          1           0      -12.801421    2.888177    0.869475
     96          1           0      -12.025518    2.635995   -0.508423
     97         14           0       -0.516744   -1.650065   -3.058344
     98          6           0       -4.498577   -0.636495   -1.353143
     99          6           0       -4.716161    0.769273   -1.343609
    100          6           0       -3.720501    1.670152   -1.765686
    101          1           0       -2.884442    1.327649   -2.060512
    102          6           0       -3.921087    3.040829   -1.764302
    103          6           0       -2.912273    3.951271   -2.214555
    104          1           0       -2.077255    3.613595   -2.516335
    105          6           0       -3.133751    5.289443   -2.215694
    106          1           0       -2.452576    5.879095   -2.516141
    107          6           0       -4.377994    5.817172   -1.770279
    108          1           0       -4.515583    6.757095   -1.765669
    109          6           0       -5.365749    4.995116   -1.351010
    110          1           0       -6.193679    5.366066   -1.068821
    111          6           0       -5.184130    3.572552   -1.326466
    112          6           0       -6.172069    2.696511   -0.905455
    113          1           0       -7.003739    3.048463   -0.609487
    114          6           0       -5.983001    1.296697   -0.899783
    115          6           0       -3.236985   -1.125447   -1.814529
    116          6           0       -2.156041   -1.447574   -2.248015
    117          6           0       -0.788557   -1.955545   -4.865343
    118          1           0       -1.163429   -1.149862   -5.278673
    119          1           0        0.066674   -2.172723   -5.291701
    120          1           0       -1.411158   -2.702333   -4.981031
    121          6           0        0.391445   -0.042149   -2.861007
    122          1           0        0.581110    0.111436   -1.911546
    123          1           0        1.233579   -0.078820   -3.361215
    124          1           0       -0.161271    0.689543   -3.205755
    125          6           0        0.422384   -3.043406   -2.275805
    126          1           0       -0.071908   -3.880878   -2.399560
    127          1           0        1.305694   -3.119259   -2.695031
    128          1           0        0.529793   -2.867113   -1.317133
 ---------------------------------------------------------------------

 SCF Done:  E(RB3LYP) =  -3632.31877468     A.U. after   16 cycles

 Excitation energies and oscillator strengths:

 Excited State   1:      Singlet-A      1.7150 eV  722.95 nm  f=0.0017  <S**2>=0.000
     249 -> 251       -0.21155
     249 -> 252       -0.40683
     250 -> 251        0.49565
     250 -> 252        0.20963
 This state for optimization and/or second-order correction.
 Total Energy, E(TD-HF/TD-KS) =  -3632.25575007
 Copying the excited state density for this state as the 1-particle RhoCI density.

 Excited State   2:      Singlet-A      1.7152 eV  722.86 nm  f=0.0004  <S**2>=0.000
     249 -> 251        0.45564
     249 -> 252       -0.21552
     250 -> 251        0.20796
     250 -> 252       -0.45006

 Excited State   3:      Singlet-A      1.7389 eV  712.99 nm  f=0.2919  <S**2>=0.000
     249 -> 252        0.53942
     250 -> 251        0.46266

 Excited State   4:      Singlet-A      1.7475 eV  709.50 nm  f=0.0000  <S**2>=0.000
     249 -> 251        0.50009
     250 -> 252        0.50587

 Excited State   5:      Singlet-A      2.7313 eV  453.94 nm  f=0.0000  <S**2>=0.000
     247 -> 251        0.29614
     247 -> 252        0.11346
     248 -> 251       -0.37506
     248 -> 252        0.47454
     249 -> 253       -0.12004
     250 -> 254        0.10315

 Excited State   6:      Singlet-A      2.7314 eV  453.92 nm  f=0.0000  <S**2>=0.000
     247 -> 251        0.39569
     247 -> 252        0.45739
     248 -> 251        0.29092
     248 -> 252       -0.12628
     249 -> 254        0.12317
     250 -> 253       -0.10287

 Excited State   7:      Singlet-A      3.0277 eV  409.50 nm  f=0.0000  <S**2>=0.000
     247 -> 251       -0.10142
     248 -> 251        0.49897
     248 -> 252        0.48025

 Excited State   8:      Singlet-A      3.0280 eV  409.46 nm  f=0.0000  <S**2>=0.000
     247 -> 251       -0.47728
     247 -> 252        0.50186
     248 -> 252        0.10101

 Excited State   9:      Singlet-A      3.1862 eV  389.13 nm  f=0.0000  <S**2>=0.000
     244 -> 251       -0.10102
     245 -> 251        0.42911
     246 -> 252        0.43097
     249 -> 255        0.18690
     250 -> 256        0.18765

 Excited State  10:      Singlet-A      3.1868 eV  389.06 nm  f=0.0864  <S**2>=0.000
     245 -> 252        0.44392
     246 -> 251        0.45132
     249 -> 256        0.19987
     250 -> 255        0.20041

 Excited State  11:      Singlet-A      3.1984 eV  387.65 nm  f=0.0001  <S**2>=0.000
     243 -> 251        0.23244
     243 -> 252        0.30482
     244 -> 251       -0.29489
     244 -> 252        0.21526
     245 -> 251       -0.14067
     246 -> 252       -0.13984
     249 -> 257        0.16397
     249 -> 258       -0.21424
     250 -> 257        0.22310
     250 -> 258        0.15211

 Excited State  12:      Singlet-A      3.1993 eV  387.54 nm  f=0.0916  <S**2>=0.000
     243 -> 251       -0.32078
     243 -> 252       -0.21363
     244 -> 251       -0.22844
     244 -> 252        0.32950
     249 -> 257       -0.24048
     249 -> 258       -0.16495
     250 -> 257       -0.15533
     250 -> 258        0.24806

 Excited State  13:      Singlet-A      3.2010 eV  387.33 nm  f=0.0000  <S**2>=0.000
     248 -> 252        0.11660
     249 -> 253        0.46653
     250 -> 253       -0.24722
     250 -> 254       -0.41357

 Excited State  14:      Singlet-A      3.2012 eV  387.30 nm  f=0.0001  <S**2>=0.000
     247 -> 252       -0.11397
     249 -> 254        0.48353
     250 -> 253       -0.42029
     250 -> 254        0.22592

 Excited State  15:      Singlet-A      3.4161 eV  362.94 nm  f=0.0000  <S**2>=0.000
     249 -> 253        0.29396
     249 -> 254       -0.39191
     250 -> 253       -0.22521
     250 -> 254        0.45582

 Excited State  16:      Singlet-A      3.4161 eV  362.94 nm  f=0.0000  <S**2>=0.000
     249 -> 253        0.41210
     249 -> 254        0.30421
     250 -> 253        0.43732
     250 -> 254        0.21186

 Excited State  17:      Singlet-A      3.4928 eV  354.97 nm  f=0.0000  <S**2>=0.000
     245 -> 251       -0.35739
     245 -> 252       -0.33884
     246 -> 251        0.36248
     246 -> 252        0.35161

 Excited State  18:      Singlet-A      3.4930 eV  354.95 nm  f=0.0000  <S**2>=0.000
     245 -> 251       -0.34781
     245 -> 252        0.36852
     246 -> 251       -0.34080
     246 -> 252        0.35304

 Excited State  19:      Singlet-A      3.5938 eV  345.00 nm  f=0.0000  <S**2>=0.000
     244 -> 251        0.50327
     244 -> 252        0.48245

 Excited State  20:      Singlet-A      3.5939 eV  344.98 nm  f=0.0000  <S**2>=0.000
     243 -> 251       -0.48146
     243 -> 252        0.50422

 Excited State  21:      Singlet-A      3.6733 eV  337.53 nm  f=0.5007  <S**2>=0.000
     245 -> 252       -0.20918
     246 -> 251       -0.20058
     249 -> 256        0.44182
     250 -> 255        0.45508

 Excited State  22:      Singlet-A      3.6751 eV  337.36 nm  f=0.0000  <S**2>=0.000
     245 -> 251       -0.20641
     246 -> 252       -0.20537
     249 -> 255        0.44829
     250 -> 256        0.44633

 Excited State  23:      Singlet-A      3.7326 eV  332.17 nm  f=0.0001  <S**2>=0.000
     239 -> 251        0.49022
     240 -> 252        0.47516

 Excited State  24:      Singlet-A      3.7327 eV  332.15 nm  f=0.0060  <S**2>=0.000
     239 -> 252        0.47684
     240 -> 251        0.48459
     240 -> 252       -0.11418

 Excited State  25:      Singlet-A      3.7899 eV  327.14 nm  f=0.0001  <S**2>=0.000
     237 -> 251        0.24345
     237 -> 252        0.10184
     238 -> 251        0.41832
     238 -> 252        0.45100
     241 -> 252       -0.10870
     242 -> 251        0.11675

 The electronic state is 1-A.
 Alpha  occ. eigenvalues --  -66.11623 -66.11623 -66.11306 -66.11306 -10.21450
 Alpha  occ. eigenvalues --  -10.21449 -10.21432 -10.21432 -10.20221 -10.20220
 Alpha  occ. eigenvalues --  -10.20211 -10.20211 -10.20153 -10.20152 -10.20146
 Alpha  occ. eigenvalues --  -10.20146 -10.19315 -10.19315 -10.19310 -10.19310
 Alpha  occ. eigenvalues --  -10.19234 -10.19234 -10.19229 -10.19229 -10.18190
 Alpha  occ. eigenvalues --  -10.18190 -10.18075 -10.18075 -10.17361 -10.17361
 Alpha  occ. eigenvalues --  -10.17361 -10.17360 -10.17322 -10.17322 -10.17304
 Alpha  occ. eigenvalues --  -10.17304 -10.17292 -10.17292 -10.17286 -10.17286
 Alpha  occ. eigenvalues --  -10.17246 -10.17246 -10.17228 -10.17228 -10.17210
 Alpha  occ. eigenvalues --  -10.17210 -10.17208 -10.17207 -10.17204 -10.17204
 Alpha  occ. eigenvalues --  -10.17198 -10.17197 -10.15729 -10.15728 -10.15647
 Alpha  occ. eigenvalues --  -10.15647 -10.12534 -10.12533 -10.12373 -10.12373
 Alpha  occ. eigenvalues --  -10.12281 -10.12280 -10.12124 -10.12123 -10.12006
 Alpha  occ. eigenvalues --  -10.12006 -10.11955 -10.11954  -5.26296  -5.26296
 Alpha  occ. eigenvalues --   -5.25984  -5.25984  -3.62271  -3.62271  -3.62107
 Alpha  occ. eigenvalues --   -3.62107  -3.62091  -3.62091  -3.61962  -3.61962
 Alpha  occ. eigenvalues --   -3.61793  -3.61793  -3.61777  -3.61777  -0.89234
 Alpha  occ. eigenvalues --   -0.89234  -0.87365  -0.87365  -0.85452  -0.85452
 Alpha  occ. eigenvalues --   -0.82256  -0.82256  -0.81661  -0.81661  -0.78748
 Alpha  occ. eigenvalues --   -0.78748  -0.78354  -0.78354  -0.77183  -0.77183
 Alpha  occ. eigenvalues --   -0.74923  -0.74921  -0.74377  -0.74374  -0.74120
 Alpha  occ. eigenvalues --   -0.74120  -0.73412  -0.73411  -0.73272  -0.73271
 Alpha  occ. eigenvalues --   -0.72175  -0.72174  -0.71131  -0.71130  -0.70952
 Alpha  occ. eigenvalues --   -0.70952  -0.70740  -0.70739  -0.70593  -0.70590
 Alpha  occ. eigenvalues --   -0.69139  -0.69138  -0.67612  -0.67612  -0.63109
 Alpha  occ. eigenvalues --   -0.63108  -0.62797  -0.62797  -0.62690  -0.62690
 Alpha  occ. eigenvalues --   -0.61422  -0.61422  -0.61208  -0.61207  -0.58759
 Alpha  occ. eigenvalues --   -0.58759  -0.54069  -0.54069  -0.53727  -0.53727
 Alpha  occ. eigenvalues --   -0.53246  -0.53245  -0.52643  -0.52642  -0.52517
 Alpha  occ. eigenvalues --   -0.52517  -0.49717  -0.49717  -0.48934  -0.48933
 Alpha  occ. eigenvalues --   -0.48524  -0.48524  -0.47753  -0.47752  -0.47130
 Alpha  occ. eigenvalues --   -0.47129  -0.45429  -0.45429  -0.44258  -0.44256
 Alpha  occ. eigenvalues --   -0.43957  -0.43955  -0.43727  -0.43727  -0.43619
 Alpha  occ. eigenvalues --   -0.43608  -0.43417  -0.43415  -0.43171  -0.43171
 Alpha  occ. eigenvalues --   -0.43093  -0.43092  -0.43012  -0.43011  -0.42740
 Alpha  occ. eigenvalues --   -0.42713  -0.42654  -0.42625  -0.42494  -0.42494
 Alpha  occ. eigenvalues --   -0.41618  -0.41618  -0.41511  -0.41511  -0.41278
 Alpha  occ. eigenvalues --   -0.41275  -0.41192  -0.41189  -0.41107  -0.41101
 Alpha  occ. eigenvalues --   -0.40787  -0.40786  -0.40424  -0.40423  -0.40052
 Alpha  occ. eigenvalues --   -0.40045  -0.39891  -0.39890  -0.38877  -0.38877
 Alpha  occ. eigenvalues --   -0.38718  -0.38717  -0.37098  -0.37098  -0.36504
 Alpha  occ. eigenvalues --   -0.36503  -0.35834  -0.35834  -0.34925  -0.34925
 Alpha  occ. eigenvalues --   -0.34687  -0.34687  -0.34099  -0.34093  -0.33639
 Alpha  occ. eigenvalues --   -0.33639  -0.33528  -0.33527  -0.32961  -0.32961
 Alpha  occ. eigenvalues --   -0.32195  -0.32194  -0.30844  -0.30838  -0.30663
 Alpha  occ. eigenvalues --   -0.30658  -0.30425  -0.30424  -0.30042  -0.30039
 Alpha  occ. eigenvalues --   -0.28577  -0.28568  -0.28552  -0.28551  -0.27715
 Alpha  occ. eigenvalues --   -0.27703  -0.26297  -0.26297  -0.26093  -0.26092
 Alpha  occ. eigenvalues --   -0.25767  -0.25753  -0.23676  -0.23676  -0.23346
 Alpha  occ. eigenvalues --   -0.23336  -0.21596  -0.21595  -0.16795  -0.16789
 Alpha virt. eigenvalues --   -0.09603  -0.09596  -0.03372  -0.03371  -0.01814
 Alpha virt. eigenvalues --   -0.01806  -0.01370  -0.01370   0.01881   0.01901
 Alpha virt. eigenvalues --    0.02592   0.02596   0.02950   0.02962   0.03007

 Mulliken atomic charges:
              1
     1  Si   0.551208
     2  C   -0.065737
     3  C    0.097558
     4  C   -0.163597
     5  H    0.067793
     6  C    0.096032
     7  C   -0.083037
     8  H    0.057956
     9  C   -0.065088
    10  H    0.059749
    11  C   -0.061982
    12  H    0.059415
    13  C   -0.082305
    14  H    0.056855
    15  C    0.109557
    16  C   -0.169860
    17  H    0.062499
    18  C    0.117345
    19  C    0.405943
    20  C   -0.623877
    21  C   -0.515716
    22  H    0.127897
    23  H    0.119609
    24  H    0.127523
    25  C   -0.523288
    26  H    0.130961
    27  H    0.122521
    28  H    0.123117
    29  C   -0.519923
    30  H    0.126562
    31  H    0.124462
    32  H    0.132678
    33  Si   0.551624
    34  C   -0.066670
    35  C    0.098286
    36  C   -0.162869
    37  H    0.066528
    38  C    0.096761
    39  C   -0.082389
    40  H    0.056131
    41  C   -0.065080
    42  H    0.059186
    43  C   -0.062137
    44  H    0.059387
    45  C   -0.082038
    46  H    0.057206
    47  C    0.109306
    48  C   -0.169272
    49  H    0.063207
    50  C    0.116893
    51  C    0.408245
    52  C   -0.625298
    53  C   -0.515594
    54  H    0.128332
    55  H    0.118885
    56  H    0.128283
    57  C   -0.521800
    58  H    0.126388
    59  H    0.119763
    60  H    0.125338
    61  C   -0.520551
    62  H    0.128758
    63  H    0.121194
    64  H    0.131169
    65  Si   0.551621
    66  C   -0.066683
    67  C    0.098390
    68  C   -0.162950
    69  H    0.066554
    70  C    0.096803
    71  C   -0.082452
    72  H    0.056154
    73  C   -0.065042
    74  H    0.059172
    75  C   -0.062166
    76  H    0.059399
    77  C   -0.082020
    78  H    0.057212
    79  C    0.109263
    80  C   -0.169233
    81  H    0.063196
    82  C    0.116849
    83  C    0.408183
    84  C   -0.625232
    85  C   -0.515597
    86  H    0.128326
    87  H    0.118889
    88  H    0.128277
    89  C   -0.521804
    90  H    0.126382
    91  H    0.119763
    92  H    0.125337
    93  C   -0.520561
    94  H    0.128759
    95  H    0.121197
    96  H    0.131165
    97  Si   0.551194
    98  C   -0.065742
    99  C    0.097540
   100  C   -0.163582
   101  H    0.067782
   102  C    0.096056
   103  C   -0.083050
   104  H    0.057960
   105  C   -0.065060
   106  H    0.059752
   107  C   -0.062038
   108  H    0.059438
   109  C   -0.082275
   110  H    0.056863
   111  C    0.109522
   112  C   -0.169897
   113  H    0.062521
   114  C    0.117371
   115  C    0.405950
   116  C   -0.623855
   117  C   -0.515717
   118  H    0.127896
   119  H    0.119614
   120  H    0.127521
   121  C   -0.523291
   122  H    0.130961
   123  H    0.122521
   124  H    0.123115
   125  C   -0.519918
   126  H    0.126559
   127  H    0.124462
   128  H    0.132676
 Sum of Mulliken atomic charges =   0.00000

 Dipole moment (field-independent basis, Debye):
    X=              0.0004    Y=             -0.0001    Z=             -0.0006  Tot=              0.0007
 Quadrupole moment (field-independent basis, Debye-Ang):
   XX=           -366.2410   YY=           -373.5068   ZZ=           -418.9361
   XY=             -1.0515   XZ=            -28.6375   YZ=             -2.2883

 Normal termination of Gaussian 09 at Fri Jan  6 02:26:05 2012.
