 Gaussian 09, Revision A.02,
 Gaussian 09:  EM64L-G09RevA.02 11-Jun-2009

 ---------------------------------------------------------
 #p scf=verytight b3lyp/6-31g(d,p) td(singlets,nstates=25)
 ---------------------------------------------------------

 ----------------
 CSD ENTRY k01071
 ----------------
 Symbolic Z-matrix:
 Charge =  0 Multiplicity = 1

                         Standard orientation:
 ---------------------------------------------------------------------
 Center     Atomic      Atomic             Coordinates (Angstroms)
 Number     Number       Type             X           Y           Z
 ---------------------------------------------------------------------
      1         14           0        0.203062    3.817433    1.731523
      2          6           0        3.777874    1.275363    0.990966
      3          6           0        4.879159    2.050041    0.531988
      4          6           0        4.797878    3.450955    0.423018
      5          1           0        3.988061    3.885580    0.665019
      6          6           0        5.861903    4.216252   -0.025582
      7          6           0        5.766447    5.638803   -0.154324
      8          1           0        4.957078    6.077321    0.080085
      9          6           0        6.816927    6.368051   -0.606667
     10          1           0        6.736647    7.311188   -0.684129
     11          6           0        8.038101    5.731837   -0.965834
     12          1           0        8.769499    6.255830   -1.270400
     13          6           0        8.169258    4.389463   -0.875798
     14          1           0        8.988578    3.982207   -1.131785
     15          6           0        7.091479    3.570759   -0.401130
     16          6           0        7.185797    2.192066   -0.295801
     17          1           0        8.000565    1.766662   -0.537128
     18          6           0        6.110678    1.397665    0.160665
     19          6           0        2.567167    1.953044    1.335004
     20          6           0        1.578550    2.605880    1.572849
     21          6           0       -0.784759    3.792995    0.164310
     22          1           0       -0.238606    4.143785   -0.569944
     23          1           0       -1.582490    4.351803    0.272871
     24          1           0       -1.053956    2.873762   -0.038578
     25          6           0        0.974190    5.496652    1.917769
     26          1           0        1.464790    5.538553    2.765464
     27          1           0        0.272590    6.181088    1.911496
     28          1           0        1.592456    5.656333    1.174857
     29          6           0       -0.853737    3.405818    3.197636
     30          1           0       -1.255235    2.520254    3.072830
     31          1           0       -1.562796    4.077132    3.289170
     32          1           0       -0.301161    3.401784    4.007783
     33         14           0        9.785497   -2.553325   -0.477756
     34          6           0        6.210684   -0.011256    0.262801
     35          6           0        5.109399   -0.785933    0.721779
     36          6           0        5.190681   -2.186848    0.830749
     37          1           0        6.000497   -2.621472    0.588748
     38          6           0        4.126656   -2.952144    1.279349
     39          6           0        4.222112   -4.374696    1.408091
     40          1           0        5.031481   -4.813214    1.173682
     41          6           0        3.171631   -5.103943    1.860434
     42          1           0        3.251912   -6.047080    1.937896
     43          6           0        1.950457   -4.467730    2.219601
     44          1           0        1.219059   -4.991722    2.524167
     45          6           0        1.819301   -3.125355    2.129565
     46          1           0        0.999980   -2.718099    2.385552
     47          6           0        2.897080   -2.306652    1.654897
     48          6           0        2.802762   -0.927958    1.549568
     49          1           0        1.987993   -0.502555    1.790895
     50          6           0        3.877880   -0.133557    1.093102
     51          6           0        7.421391   -0.688936   -0.081237
     52          6           0        8.410009   -1.341772   -0.319082
     53          6           0       10.773317   -2.528887    1.089457
     54          1           0       10.227164   -2.879677    1.823711
     55          1           0       11.571049   -3.087696    0.980896
     56          1           0       11.042514   -1.609655    1.292345
     57          6           0        9.014368   -4.232545   -0.664002
     58          1           0        8.523769   -4.274445   -1.511696
     59          1           0        9.715968   -4.916980   -0.657729
     60          1           0        8.396102   -4.392226    0.078910
     61          6           0       10.842295   -2.141711   -1.943869
     62          1           0       11.243794   -1.256147   -1.819063
     63          1           0       11.551355   -2.813024   -2.035403
     64          1           0       10.289719   -2.137676   -2.754016
     65         14           0       -9.785500    2.553303    0.477775
     66          6           0       -6.210658    0.011263   -0.262805
     67          6           0       -5.109396    0.785932   -0.721783
     68          6           0       -5.190689    2.186883   -0.830774
     69          1           0       -6.000514    2.621440   -0.588731
     70          6           0       -4.126639    2.952118   -1.279332
     71          6           0       -4.222128    4.374664   -1.408075
     72          1           0       -5.031473    4.813196   -1.173665
     73          6           0       -3.171621    5.103945   -1.860434
     74          1           0       -3.251957    6.047114   -1.937927
     75          6           0       -1.950451    4.467711   -2.219587
     76          1           0       -1.219075    4.991747   -2.524195
     77          6           0       -1.819308    3.125338   -2.129561
     78          1           0       -0.999991    2.718094   -2.385555
     79          6           0       -2.897127    2.306624   -1.654886
     80          6           0       -2.802719    0.927968   -1.549561
     81          1           0       -1.988014    0.502557   -1.790898
     82          6           0       -3.877906    0.133555   -1.093102
     83          6           0       -7.421375    0.688941    0.081230
     84          6           0       -8.410038    1.341771    0.319077
     85          6           0      -10.773286    2.528924   -1.089483
     86          1           0      -10.227187    2.879694   -1.823731
     87          1           0      -11.571091    3.087670   -0.980890
     88          1           0      -11.042545    1.609654   -1.292353
     89          6           0       -9.014361    4.232558    0.663997
     90          1           0       -8.523746    4.274423    1.511693
     91          1           0       -9.715939    4.917012    0.657687
     92          1           0       -8.396094    4.392247   -0.078919
     93          6           0      -10.842252    2.141715    1.943870
     94          1           0      -11.243848    1.256139    1.819057
     95          1           0      -11.551387    2.813033    2.035420
     96          1           0      -10.289730    2.137699    2.754041
     97         14           0       -0.203032   -3.817419   -1.731521
     98          6           0       -3.777876   -1.275361   -0.990967
     99          6           0       -4.879138   -2.050030   -0.531989
    100          6           0       -4.797850   -3.450950   -0.423022
    101          1           0       -3.988113   -3.885590   -0.665023
    102          6           0       -5.861891   -4.216247    0.025584
    103          6           0       -5.766499   -5.638813    0.154320
    104          1           0       -4.957057   -6.077318   -0.080089
    105          6           0       -6.816913   -6.368043    0.606662
    106          1           0       -6.736680   -7.311194    0.684131
    107          6           0       -8.038079   -5.731833    0.965833
    108          1           0       -8.769462   -6.255822    1.270405
    109          6           0       -8.169223   -4.389452    0.875801
    110          1           0       -8.988542   -3.982200    1.131790
    111          6           0       -7.091501   -3.570766    0.401125
    112          6           0       -7.185815   -2.192068    0.295804
    113          1           0       -8.000617   -1.766675    0.537119
    114          6           0       -6.110727   -1.397667   -0.160669
    115          6           0       -2.567159   -1.953040   -1.335002
    116          6           0       -1.578593   -2.605889   -1.572856
    117          6           0        0.784748   -3.792991   -0.164313
    118          1           0        0.238554   -4.143796    0.569940
    119          1           0        1.582462   -4.351804   -0.272877
    120          1           0        1.053913   -2.873772    0.038574
    121          6           0       -0.974175   -5.496646   -1.917771
    122          1           0       -1.464782   -5.538547   -2.765467
    123          1           0       -0.272596   -6.181089   -1.911497
    124          1           0       -1.592444   -5.656323   -1.174857
    125          6           0        0.853719   -3.405823   -3.197638
    126          1           0        1.255216   -2.520255   -3.072834
    127          1           0        1.562752   -4.077144   -3.289173
    128          1           0        0.301190   -3.401775   -4.007784
 ---------------------------------------------------------------------

 SCF Done:  E(RB3LYP) =  -3632.26976580     A.U. after   16 cycles

 Excitation energies and oscillator strengths:

 Excited State   1:      Singlet-A      1.6484 eV  752.14 nm  f=0.0000  <S**2>=0.000
     249 -> 252        0.29487
     250 -> 251        0.64286
 This state for optimization and/or second-order correction.
 Total Energy, E(TD-HF/TD-KS) =  -3632.20918751
 Copying the excited state density for this state as the 1-particle RhoCI density.

 Excited State   2:      Singlet-A      1.6504 eV  751.22 nm  f=0.0466  <S**2>=0.000
     249 -> 251        0.29758
     250 -> 252        0.64158

 Excited State   3:      Singlet-A      1.7284 eV  717.34 nm  f=0.2444  <S**2>=0.000
     249 -> 251        0.64320
     250 -> 252       -0.30170

 Excited State   4:      Singlet-A      1.7361 eV  714.16 nm  f=0.0000  <S**2>=0.000
     249 -> 252        0.64448
     250 -> 251       -0.29913

 Excited State   5:      Singlet-A      2.6621 eV  465.73 nm  f=0.0000  <S**2>=0.000
     247 -> 251        0.46056
     248 -> 252        0.51171
     249 -> 254       -0.10170
     250 -> 253        0.10516

 Excited State   6:      Singlet-A      2.6633 eV  465.53 nm  f=0.0035  <S**2>=0.000
     247 -> 252        0.46015
     248 -> 251        0.51105
     249 -> 253       -0.10311
     250 -> 254        0.10692

 Excited State   7:      Singlet-A      2.8828 eV  430.08 nm  f=0.0000  <S**2>=0.000
     246 -> 252       -0.10798
     247 -> 251        0.51031
     248 -> 252       -0.47192

 Excited State   8:      Singlet-A      2.8865 eV  429.53 nm  f=0.0224  <S**2>=0.000
     246 -> 251       -0.10346
     247 -> 252        0.51216
     248 -> 251       -0.47221

 Excited State   9:      Singlet-A      3.1236 eV  396.93 nm  f=0.0001  <S**2>=0.000
     245 -> 251        0.28225
     246 -> 252        0.51801
     247 -> 251        0.13288
     249 -> 254        0.16991
     249 -> 255       -0.14344
     250 -> 253       -0.22015
     250 -> 256       -0.13547

 Excited State  10:      Singlet-A      3.1250 eV  396.75 nm  f=0.0866  <S**2>=0.000
     245 -> 252        0.28086
     246 -> 251        0.52953
     247 -> 252        0.12465
     249 -> 253        0.14208
     249 -> 256        0.13308
     250 -> 254       -0.18045
     250 -> 255        0.15694

 Excited State  11:      Singlet-A      3.1695 eV  391.18 nm  f=0.0100  <S**2>=0.000
     245 -> 252        0.14242
     246 -> 251        0.18996
     248 -> 251       -0.10661
     249 -> 253       -0.38075
     250 -> 254        0.51206

 Excited State  12:      Singlet-A      3.1713 eV  390.95 nm  f=0.0000  <S**2>=0.000
     245 -> 251        0.16438
     246 -> 252        0.21984
     248 -> 252       -0.10446
     249 -> 254       -0.36892
     250 -> 253        0.49737

 Excited State  13:      Singlet-A      3.1852 eV  389.25 nm  f=0.0000  <S**2>=0.000
     243 -> 252        0.38860
     244 -> 251        0.39977
     249 -> 257        0.27933
     250 -> 258        0.28899

 Excited State  14:      Singlet-A      3.1898 eV  388.69 nm  f=0.0708  <S**2>=0.000
     243 -> 251        0.38495
     244 -> 252        0.38080
     245 -> 252        0.10138
     249 -> 256        0.10873
     249 -> 258       -0.26925
     250 -> 257       -0.30153

 Excited State  15:      Singlet-A      3.3485 eV  370.26 nm  f=0.0000  <S**2>=0.000
     249 -> 253        0.55740
     250 -> 254        0.42041

 Excited State  16:      Singlet-A      3.3487 eV  370.25 nm  f=0.0000  <S**2>=0.000
     249 -> 254        0.55832
     250 -> 253        0.41974

 Excited State  17:      Singlet-A      3.4010 eV  364.55 nm  f=0.0000  <S**2>=0.000
     245 -> 251        0.54820
     246 -> 252       -0.38848
     249 -> 255       -0.11413
     250 -> 256       -0.12260

 Excited State  18:      Singlet-A      3.4029 eV  364.34 nm  f=0.0018  <S**2>=0.000
     245 -> 252        0.55249
     246 -> 251       -0.38617
     249 -> 256        0.10155
     250 -> 255        0.11988

 Excited State  19:      Singlet-A      3.5425 eV  349.99 nm  f=0.0000  <S**2>=0.000
     243 -> 252       -0.48867
     244 -> 251        0.49694

 Excited State  20:      Singlet-A      3.5438 eV  349.86 nm  f=0.0036  <S**2>=0.000
     243 -> 251        0.49682
     244 -> 252       -0.49339

 Excited State  21:      Singlet-A      3.6387 eV  340.73 nm  f=0.0000  <S**2>=0.000
     245 -> 251        0.27175
     249 -> 255        0.34780
     250 -> 256        0.52069

 Excited State  22:      Singlet-A      3.6545 eV  339.27 nm  f=0.4393  <S**2>=0.000
     245 -> 252       -0.26962
     246 -> 251       -0.11332
     249 -> 256        0.33009
     250 -> 255        0.52757

 Excited State  23:      Singlet-A      3.7077 eV  334.40 nm  f=0.0000  <S**2>=0.000
     239 -> 252        0.43073
     240 -> 251        0.46259
     241 -> 252        0.17927
     242 -> 251        0.18081

 Excited State  24:      Singlet-A      3.7083 eV  334.34 nm  f=0.0007  <S**2>=0.000
     239 -> 251        0.44469
     240 -> 252        0.46181
     241 -> 251        0.17346
     242 -> 252        0.15925

 Excited State  25:      Singlet-A      3.7741 eV  328.51 nm  f=0.0000  <S**2>=0.000
     237 -> 252        0.28971
     238 -> 251       -0.30757
     239 -> 252       -0.14892
     240 -> 251       -0.10875
     241 -> 252        0.21998
     242 -> 251        0.45077

 The electronic state is 1-A.
 Alpha  occ. eigenvalues --  -66.11619 -66.11618 -66.10772 -66.10772 -10.21449
 Alpha  occ. eigenvalues --  -10.21448 -10.21400 -10.21400 -10.20219 -10.20219
 Alpha  occ. eigenvalues --  -10.20206 -10.20206 -10.20165 -10.20165 -10.20123
 Alpha  occ. eigenvalues --  -10.20123 -10.19305 -10.19305 -10.19287 -10.19287
 Alpha  occ. eigenvalues --  -10.19237 -10.19236 -10.19216 -10.19216 -10.18177
 Alpha  occ. eigenvalues --  -10.18176 -10.17929 -10.17928 -10.17407 -10.17407
 Alpha  occ. eigenvalues --  -10.17341 -10.17340 -10.17332 -10.17332 -10.17312
 Alpha  occ. eigenvalues --  -10.17312 -10.17285 -10.17284 -10.17258 -10.17258
 Alpha  occ. eigenvalues --  -10.17258 -10.17258 -10.17235 -10.17234 -10.17200
 Alpha  occ. eigenvalues --  -10.17200 -10.17198 -10.17197 -10.17144 -10.17144
 Alpha  occ. eigenvalues --  -10.16907 -10.16907 -10.15709 -10.15708 -10.15542
 Alpha  occ. eigenvalues --  -10.15542 -10.12535 -10.12533 -10.12394 -10.12393
 Alpha  occ. eigenvalues --  -10.12255 -10.12255 -10.12000 -10.12000 -10.11945
 Alpha  occ. eigenvalues --  -10.11945 -10.11121 -10.11120  -5.26291  -5.26290
 Alpha  occ. eigenvalues --   -5.25492  -5.25492  -3.62266  -3.62265  -3.62102
 Alpha  occ. eigenvalues --   -3.62102  -3.62086  -3.62086  -3.61474  -3.61474
 Alpha  occ. eigenvalues --   -3.61302  -3.61302  -3.61271  -3.61271  -0.89248
 Alpha  occ. eigenvalues --   -0.89247  -0.87429  -0.87429  -0.85528  -0.85526
 Alpha  occ. eigenvalues --   -0.82326  -0.82325  -0.81650  -0.81647  -0.78811
 Alpha  occ. eigenvalues --   -0.78798  -0.78460  -0.78452  -0.77323  -0.77285
 Alpha  occ. eigenvalues --   -0.74899  -0.74875  -0.74395  -0.74252  -0.74151
 Alpha  occ. eigenvalues --   -0.74112  -0.73617  -0.73471  -0.73224  -0.73081
 Alpha  occ. eigenvalues --   -0.72262  -0.72089  -0.71135  -0.71135  -0.70947
 Alpha  occ. eigenvalues --   -0.70946  -0.70628  -0.70628  -0.70309  -0.70272
 Alpha  occ. eigenvalues --   -0.69125  -0.69037  -0.67640  -0.67632  -0.63145
 Alpha  occ. eigenvalues --   -0.63144  -0.62789  -0.62774  -0.62726  -0.62723
 Alpha  occ. eigenvalues --   -0.61456  -0.61452  -0.61246  -0.61226  -0.58816
 Alpha  occ. eigenvalues --   -0.58806  -0.54116  -0.54115  -0.53777  -0.53776
 Alpha  occ. eigenvalues --   -0.53266  -0.53252  -0.52629  -0.52616  -0.52545
 Alpha  occ. eigenvalues --   -0.52512  -0.49692  -0.49656  -0.48951  -0.48931
 Alpha  occ. eigenvalues --   -0.48547  -0.48544  -0.47756  -0.47749  -0.47168
 Alpha  occ. eigenvalues --   -0.47165  -0.45478  -0.45472  -0.44277  -0.44266
 Alpha  occ. eigenvalues --   -0.43999  -0.43958  -0.43814  -0.43813  -0.43607
 Alpha  occ. eigenvalues --   -0.43495  -0.43474  -0.43418  -0.43249  -0.43213
 Alpha  occ. eigenvalues --   -0.43104  -0.43104  -0.43001  -0.43001  -0.42753
 Alpha  occ. eigenvalues --   -0.42752  -0.42595  -0.42581  -0.42316  -0.42297
 Alpha  occ. eigenvalues --   -0.41628  -0.41626  -0.41497  -0.41495  -0.41235
 Alpha  occ. eigenvalues --   -0.41205  -0.41180  -0.41165  -0.40912  -0.40899
 Alpha  occ. eigenvalues --   -0.40791  -0.40772  -0.40423  -0.40423  -0.40012
 Alpha  occ. eigenvalues --   -0.40003  -0.39871  -0.39865  -0.38889  -0.38886
 Alpha  occ. eigenvalues --   -0.38722  -0.38701  -0.37140  -0.37135  -0.36707
 Alpha  occ. eigenvalues --   -0.36648  -0.35867  -0.35861  -0.34919  -0.34918
 Alpha  occ. eigenvalues --   -0.34511  -0.34454  -0.34118  -0.34023  -0.33662
 Alpha  occ. eigenvalues --   -0.33660  -0.33544  -0.33537  -0.33010  -0.32958
 Alpha  occ. eigenvalues --   -0.32372  -0.32346  -0.30946  -0.30787  -0.30717
 Alpha  occ. eigenvalues --   -0.30507  -0.30325  -0.30308  -0.30251  -0.29942
 Alpha  occ. eigenvalues --   -0.28827  -0.28601  -0.28320  -0.27955  -0.27089
 Alpha  occ. eigenvalues --   -0.26736  -0.26281  -0.26279  -0.26003  -0.25983
 Alpha  occ. eigenvalues --   -0.25797  -0.25233  -0.23670  -0.23632  -0.23392
 Alpha  occ. eigenvalues --   -0.22825  -0.21330  -0.21257  -0.16826  -0.16641
 Alpha virt. eigenvalues --   -0.09599  -0.09591  -0.03414  -0.03413  -0.01801
 Alpha virt. eigenvalues --   -0.01800  -0.01425  -0.01417   0.01824   0.01907
 Alpha virt. eigenvalues --    0.02627   0.02644   0.02918   0.02936   0.03099

 Mulliken atomic charges:
              1
     1  Si   0.533050
     2  C   -0.064420
     3  C    0.097272
     4  C   -0.162818
     5  H    0.067611
     6  C    0.096451
     7  C   -0.082467
     8  H    0.056385
     9  C   -0.065225
    10  H    0.059073
    11  C   -0.061984
    12  H    0.059424
    13  C   -0.082167
    14  H    0.056971
    15  C    0.109782
    16  C   -0.169727
    17  H    0.062566
    18  C    0.117721
    19  C    0.402373
    20  C   -0.621280
    21  C   -0.478091
    22  H    0.114494
    23  H    0.128193
    24  H    0.134061
    25  C   -0.521943
    26  H    0.124727
    27  H    0.118318
    28  H    0.121749
    29  C   -0.521060
    30  H    0.131327
    31  H    0.120585
    32  H    0.127918
    33  Si   0.551361
    34  C   -0.067124
    35  C    0.098350
    36  C   -0.163310
    37  H    0.066544
    38  C    0.099612
    39  C   -0.086941
    40  H    0.055555
    41  C   -0.062804
    42  H    0.058182
    43  C   -0.061452
    44  H    0.061445
    45  C   -0.106672
    46  H    0.065466
    47  C    0.114080
    48  C   -0.166108
    49  H    0.066210
    50  C    0.116342
    51  C    0.407911
    52  C   -0.625421
    53  C   -0.515522
    54  H    0.128581
    55  H    0.118766
    56  H    0.128725
    57  C   -0.521850
    58  H    0.125661
    59  H    0.119810
    60  H    0.125291
    61  C   -0.520426
    62  H    0.128919
    63  H    0.121136
    64  H    0.130809
    65  Si   0.551351
    66  C   -0.067176
    67  C    0.098365
    68  C   -0.163280
    69  H    0.066543
    70  C    0.099635
    71  C   -0.086935
    72  H    0.055553
    73  C   -0.062830
    74  H    0.058195
    75  C   -0.061459
    76  H    0.061450
    77  C   -0.106663
    78  H    0.065464
    79  C    0.114067
    80  C   -0.166027
    81  H    0.066190
    82  C    0.116243
    83  C    0.407794
    84  C   -0.625295
    85  C   -0.515527
    86  H    0.128585
    87  H    0.118762
    88  H    0.128718
    89  C   -0.521853
    90  H    0.125656
    91  H    0.119809
    92  H    0.125287
    93  C   -0.520426
    94  H    0.128920
    95  H    0.121138
    96  H    0.130817
    97  Si   0.533063
    98  C   -0.064377
    99  C    0.097233
   100  C   -0.162770
   101  H    0.067583
   102  C    0.096437
   103  C   -0.082495
   104  H    0.056402
   105  C   -0.065210
   106  H    0.059076
   107  C   -0.061990
   108  H    0.059418
   109  C   -0.082170
   110  H    0.056967
   111  C    0.109792
   112  C   -0.169750
   113  H    0.062578
   114  C    0.117773
   115  C    0.402455
   116  C   -0.621380
   117  C   -0.478087
   118  H    0.114497
   119  H    0.128196
   120  H    0.134063
   121  C   -0.521945
   122  H    0.124726
   123  H    0.118315
   124  H    0.121747
   125  C   -0.521053
   126  H    0.131327
   127  H    0.120586
   128  H    0.127922
 Sum of Mulliken atomic charges =   0.00000

 Dipole moment (field-independent basis, Debye):
    X=              0.0005    Y=             -0.0005    Z=              0.0001  Tot=              0.0007
 Quadrupole moment (field-independent basis, Debye-Ang):
   XX=           -372.7537   YY=           -364.2138   ZZ=           -426.1386
   XY=            -12.6961   XZ=            -18.0458   YZ=             -5.6494

 Normal termination of Gaussian 09 at Fri Jan  6 02:18:31 2012.
