 Gaussian 09, Revision A.02,
 Gaussian 09:  EM64L-G09RevA.02 11-Jun-2009

 ---------------------------------------------------------
 #p scf=verytight b3lyp/6-31g(d,p) td(singlets,nstates=25)
 ---------------------------------------------------------

 ----------------
 CSD ENTRY k01094
 ----------------
 Symbolic Z-matrix:
 Charge =  0 Multiplicity = 1

                         Standard orientation:
 ---------------------------------------------------------------------
 Center     Atomic      Atomic             Coordinates (Angstroms)
 Number     Number       Type             X           Y           Z
 ---------------------------------------------------------------------
      1         14           0       -2.180887    5.239915    1.277063
      2         14           0        7.770006   -0.491196    0.352269
      3          6           0        1.773714    3.284410    1.869089
      4          6           0        2.051143    2.282486    2.827933
      5          6           0        1.183703    2.020326    3.906288
      6          1           0        0.384226    2.526556    3.984294
      7          6           0        1.456609    1.051624    4.853651
      8          6           0        0.583202    0.780190    5.953508
      9          1           0       -0.215891    1.284261    6.049850
     10          6           0        0.873254   -0.183350    6.860979
     11          1           0        0.278713   -0.343260    7.585099
     12          6           0        2.059900   -0.957665    6.735652
     13          1           0        2.250498   -1.635021    7.373601
     14          6           0        2.919160   -0.735802    5.715498
     15          1           0        3.711603   -1.256885    5.652852
     16          6           0        2.659141    0.267707    4.725988
     17          6           0        3.512728    0.500835    3.664193
     18          1           0        4.299385   -0.025315    3.580456
     19          6           0        3.252729    1.494408    2.703236
     20          6           0        4.116668    1.710680    1.592773
     21          6           0        3.857423    2.741188    0.652511
     22          6           0        4.685132    2.975021   -0.458016
     23          1           0        5.455232    2.432187   -0.575495
     24          6           0        4.419771    3.968510   -1.390455
     25          6           0        5.227862    4.173894   -2.546135
     26          1           0        5.971228    3.604120   -2.703859
     27          6           0        4.955513    5.171769   -3.428118
     28          1           0        5.499542    5.283909   -4.197928
     29          6           0        3.854442    6.051183   -3.202926
     30          1           0        3.685692    6.760281   -3.811634
     31          6           0        3.052309    5.882051   -2.130037
     32          1           0        2.321275    6.474614   -1.997102
     33          6           0        3.279700    4.824508   -1.185257
     34          6           0        2.444261    4.600758   -0.104522
     35          1           0        1.688824    5.164020    0.021001
     36          6           0        2.680897    3.562079    0.814035
     37          6           0        0.513930    3.974281    1.880960
     38          6           0       -0.564134    4.517101    1.764700
     39          6           0       -3.317240    3.862824    0.757188
     40          1           0       -2.990514    3.464819   -0.076331
     41          1           0       -4.220404    4.219613    0.616772
     42          1           0       -3.343094    3.179091    1.458805
     43          6           0       -2.930864    6.154621    2.714677
     44          1           0       -3.001132    5.552040    3.483612
     45          1           0       -3.822855    6.475195    2.467338
     46          1           0       -2.361824    6.918107    2.947508
     47          6           0       -1.834646    6.409406   -0.167384
     48          6           0       -3.137556    7.100818   -0.589922
     49          1           0       -3.468715    7.652198    0.149839
     50          1           0       -3.807534    6.422598   -0.817251
     51          1           0       -2.967780    7.668805   -1.369598
     52          6           0       -0.814757    7.476368    0.244451
     53          1           0        0.021550    7.041786    0.512363
     54          1           0       -1.169792    7.994140    0.997225
     55          1           0       -0.644556    8.074924   -0.512435
     56          6           0       -1.279660    5.626260   -1.370317
     57          1           0       -1.074659    6.248709   -2.098776
     58          1           0       -1.948504    4.976298   -1.673968
     59          1           0       -0.463166    5.154043   -1.103859
     60          6           0        5.269818    0.884513    1.371888
     61          6           0        6.258663    0.245943    1.075533
     62          6           0        9.006763    0.878227    0.124624
     63          1           0        8.612496    1.585510   -0.428033
     64          1           0        9.806153    0.525333   -0.317913
     65          1           0        9.252128    1.245161    0.999818
     66          6           0        8.478214   -1.763702    1.503813
     67          1           0        8.625019   -1.360862    2.384810
     68          1           0        9.331777   -2.088407    1.146414
     69          1           0        7.852048   -2.513388    1.587731
     70          6           0        7.286411   -1.253518   -1.306285
     71          6           0        6.346750   -2.442656   -1.089102
     72          1           0        5.553686   -2.146627   -0.595855
     73          1           0        6.810633   -3.136400   -0.574159
     74          1           0        6.074353   -2.807989   -1.956506
     75          6           0        8.534090   -1.749936   -2.046996
     76          1           0        9.002814   -2.407183   -1.492460
     77          1           0        9.129501   -0.992646   -2.229181
     78          1           0        8.267686   -2.166433   -2.893227
     79          6           0        6.568648   -0.211625   -2.184550
     80          1           0        6.343702   -0.613556   -3.049732
     81          1           0        7.158050    0.558471   -2.325396
     82          1           0        5.748146    0.081729   -1.737184
     83         14           0       -7.896250    0.255921   -0.628655
     84         14           0        2.054689   -5.475159   -1.553439
     85          6           0       -3.941616   -1.699554   -0.036625
     86          6           0       -3.664220   -2.701502    0.922212
     87          6           0       -4.531626   -2.963642    2.000573
     88          1           0       -5.331116   -2.457413    2.078579
     89          6           0       -4.258730   -3.932353    2.947935
     90          6           0       -5.132165   -4.203798    4.047789
     91          1           0       -5.931242   -3.699720    4.144128
     92          6           0       -4.842047   -5.167288    4.955281
     93          1           0       -5.436645   -5.327244    5.679379
     94          6           0       -3.655486   -5.941613    4.829920
     95          1           0       -3.464844   -6.618942    5.467886
     96          6           0       -2.796196   -5.719725    3.809778
     97          1           0       -2.003764   -6.240829    3.747120
     98          6           0       -3.056198   -4.716269    2.820273
     99          6           0       -2.202570   -4.483104    1.758489
    100          1           0       -1.415924   -5.009280    1.674753
    101          6           0       -2.462619   -3.489565    0.797520
    102          6           0       -1.598682   -3.273298   -0.312944
    103          6           0       -1.857924   -2.242792   -1.253204
    104          6           0       -1.030218   -2.008954   -2.363735
    105          1           0       -0.260088   -2.551769   -2.481206
    106          6           0       -1.295529   -1.015433   -3.296155
    107          6           0       -0.487463   -0.810058   -4.451826
    108          1           0        0.255889   -1.379859   -4.609607
    109          6           0       -0.759832    0.187802   -5.333807
    110          1           0       -0.215822    0.299935   -6.103608
    111          6           0       -1.860912    1.067210   -5.108599
    112          1           0       -2.029639    1.776319   -5.717337
    113          6           0       -2.663002    0.898100   -4.035744
    114          1           0       -3.394080    1.490628   -3.902819
    115          6           0       -2.435603   -0.159434   -3.090955
    116          6           0       -3.271052   -0.383191   -2.010232
    117          1           0       -4.026517    0.180049   -1.884719
    118          6           0       -3.034472   -1.421921   -1.091688
    119          6           0       -5.201390   -1.009669   -0.024752
    120          6           0       -6.279487   -0.466887   -0.141022
    121          6           0       -9.032593   -1.121160   -1.148529
    122          1           0       -8.705850   -1.519147   -1.982041
    123          1           0       -9.935703   -0.764325   -1.288933
    124          1           0       -9.058435   -1.804882   -0.446905
    125          6           0       -8.646182    1.170668    0.808972
    126          1           0       -8.716487    0.568052    1.577893
    127          1           0       -9.538211    1.491211    0.561620
    128          1           0       -8.077176    1.934122    1.041787
    129          6           0       -7.549996    1.425418   -2.073106
    130          6           0       -8.852886    2.116856   -2.495631
    131          1           0       -9.184044    2.668238   -1.755867
    132          1           0       -9.522909    1.438598   -2.722972
    133          1           0       -8.683120    2.684834   -3.275311
    134          6           0       -6.530091    2.492404   -1.661256
    135          1           0       -5.693772    2.057826   -1.393350
    136          1           0       -6.885121    3.010179   -0.908484
    137          1           0       -6.359860    3.090981   -2.418142
    138          6           0       -6.995006    0.642281   -3.276034
    139          1           0       -6.789976    1.264756   -4.004484
    140          1           0       -7.663851   -0.007678   -3.579686
    141          1           0       -6.178487    0.170088   -3.009565
    142          6           0       -0.445494   -4.099435   -0.533817
    143          6           0        0.543336   -4.738044   -0.830171
    144          6           0        3.291401   -4.105735   -1.781051
    145          1           0        2.897183   -3.398397   -2.333774
    146          1           0        4.090785   -4.458633   -2.223635
    147          1           0        3.536807   -3.738824   -0.905884
    148          6           0        2.762855   -6.747632   -0.401915
    149          1           0        2.909678   -6.344834    0.479100
    150          1           0        3.616416   -7.072394   -0.759302
    151          1           0        2.136722   -7.497346   -0.317984
    152          6           0        1.571080   -6.237537   -3.212046
    153          6           0        0.631354   -7.426628   -2.994819
    154          1           0       -0.161652   -7.130537   -2.501574
    155          1           0        1.095259   -8.120363   -2.479882
    156          1           0        0.359095   -7.791970   -3.862239
    157          6           0        2.818762   -6.733900   -3.952661
    158          1           0        3.287503   -7.391197   -3.398177
    159          1           0        3.414145   -5.976604   -4.134881
    160          1           0        2.552343   -7.150428   -4.798922
    161          6           0        0.853341   -5.195546   -4.090275
    162          1           0        0.628405   -5.597501   -4.955453
    163          1           0        1.442742   -4.425551   -4.231144
    164          1           0        0.032806   -4.902260   -3.642939
 ---------------------------------------------------------------------

 SCF Done:  E(RB3LYP) =  -4103.82021289     A.U. after   17 cycles

 Excitation energies and oscillator strengths:

 Excited State   1:      Singlet-A      1.6105 eV  769.84 nm  f=0.0000  <S**2>=0.000
     298 -> 299        0.70668
 This state for optimization and/or second-order correction.
 Total Energy, E(TD-HF/TD-KS) =  -4103.76102748
 Copying the excited state density for this state as the 1-particle RhoCI density.

 Excited State   2:      Singlet-A      1.6432 eV  754.55 nm  f=0.0000  <S**2>=0.000
     297 -> 300        0.70631

 Excited State   3:      Singlet-A      1.7149 eV  723.00 nm  f=0.0000  <S**2>=0.000
     297 -> 299       -0.49898
     298 -> 300        0.50598

 Excited State   4:      Singlet-A      1.7472 eV  709.61 nm  f=0.2672  <S**2>=0.000
     297 -> 299        0.50643
     298 -> 300        0.49958

 Excited State   5:      Singlet-A      2.7252 eV  454.96 nm  f=0.0002  <S**2>=0.000
     295 -> 299        0.64624
     296 -> 300       -0.22496
     297 -> 301       -0.15731

 Excited State   6:      Singlet-A      2.7260 eV  454.81 nm  f=0.0004  <S**2>=0.000
     295 -> 299        0.22471
     296 -> 300        0.64596
     298 -> 302       -0.15797

 Excited State   7:      Singlet-A      2.9261 eV  423.71 nm  f=0.0000  <S**2>=0.000
     296 -> 299        0.70544

 Excited State   8:      Singlet-A      2.9539 eV  419.73 nm  f=0.0000  <S**2>=0.000
     295 -> 300        0.70548

 Excited State   9:      Singlet-A      3.1564 eV  392.80 nm  f=0.0000  <S**2>=0.000
     291 -> 299       -0.10427
     292 -> 300       -0.11854
     293 -> 299        0.43228
     294 -> 300       -0.43221
     297 -> 303       -0.18759
     298 -> 304        0.18906

 Excited State  10:      Singlet-A      3.1607 eV  392.27 nm  f=0.0880  <S**2>=0.000
     291 -> 299       -0.11078
     292 -> 300        0.12163
     293 -> 299        0.42371
     294 -> 300        0.41433
     297 -> 303       -0.19642
     298 -> 304       -0.19386

 Excited State  11:      Singlet-A      3.1840 eV  389.39 nm  f=0.0027  <S**2>=0.000
     291 -> 299        0.45239
     292 -> 300        0.29293
     293 -> 299        0.14139
     294 -> 300       -0.11847
     297 -> 301       -0.15654
     297 -> 305       -0.31955
     298 -> 306        0.20189

 Excited State  12:      Singlet-A      3.1895 eV  388.73 nm  f=0.0667  <S**2>=0.000
     291 -> 299       -0.26838
     292 -> 300        0.45105
     294 -> 300       -0.18430
     297 -> 301        0.14331
     297 -> 305        0.20252
     298 -> 306        0.33154

 Excited State  13:      Singlet-A      3.2053 eV  386.81 nm  f=0.0019  <S**2>=0.000
     296 -> 300        0.14951
     297 -> 301       -0.25486
     298 -> 302        0.62161

 Excited State  14:      Singlet-A      3.2073 eV  386.57 nm  f=0.0088  <S**2>=0.000
     291 -> 299        0.13924
     293 -> 299        0.10526
     295 -> 299        0.14423
     297 -> 301        0.59115
     297 -> 305       -0.10958
     298 -> 302        0.26609

 Excited State  15:      Singlet-A      3.3261 eV  372.76 nm  f=0.0000  <S**2>=0.000
     298 -> 301        0.70312

 Excited State  16:      Singlet-A      3.3607 eV  368.93 nm  f=0.0000  <S**2>=0.000
     297 -> 302        0.70524

 Excited State  17:      Singlet-A      3.3756 eV  367.30 nm  f=0.0000  <S**2>=0.000
     293 -> 299        0.12675
     294 -> 299        0.69204

 Excited State  18:      Singlet-A      3.4103 eV  363.56 nm  f=0.0000  <S**2>=0.000
     293 -> 300        0.69572
     294 -> 300       -0.11805

 Excited State  19:      Singlet-A      3.4773 eV  356.56 nm  f=0.0000  <S**2>=0.000
     292 -> 299        0.70631

 Excited State  20:      Singlet-A      3.5041 eV  353.83 nm  f=0.0000  <S**2>=0.000
     291 -> 300        0.70637

 Excited State  21:      Singlet-A      3.5702 eV  347.27 nm  f=0.0010  <S**2>=0.000
     280 -> 300        0.12122
     290 -> 300        0.68052

 Excited State  22:      Singlet-A      3.6004 eV  344.36 nm  f=0.0017  <S**2>=0.000
     279 -> 299        0.12372
     287 -> 299        0.12720
     288 -> 299       -0.10762
     289 -> 299        0.65948

 Excited State  23:      Singlet-A      3.6407 eV  340.55 nm  f=0.0030  <S**2>=0.000
     287 -> 299       -0.14515
     293 -> 299        0.19111
     294 -> 300       -0.15997
     297 -> 303        0.46987
     298 -> 304       -0.40013

 Excited State  24:      Singlet-A      3.6608 eV  338.68 nm  f=0.3895  <S**2>=0.000
     287 -> 299       -0.14187
     288 -> 300       -0.10923
     293 -> 299        0.15967
     294 -> 300        0.20016
     297 -> 303        0.37144
     298 -> 304        0.47612

 Excited State  25:      Singlet-A      3.7063 eV  334.52 nm  f=0.0283  <S**2>=0.000
     283 -> 299        0.10274
     284 -> 299        0.10402
     285 -> 299       -0.20195
     286 -> 299        0.41743
     287 -> 299       -0.41481
     288 -> 299        0.14978
     297 -> 303       -0.20192

 The electronic state is 1-A.
 Alpha  occ. eigenvalues --  -66.11135 -66.10989 -66.10913 -66.10889 -10.21446
 Alpha  occ. eigenvalues --  -10.21368 -10.21356 -10.21319 -10.20125 -10.20057
 Alpha  occ. eigenvalues --  -10.20052 -10.20050 -10.20019 -10.20013 -10.19975
 Alpha  occ. eigenvalues --  -10.19959 -10.19191 -10.19178 -10.19162 -10.19134
 Alpha  occ. eigenvalues --  -10.19126 -10.19122 -10.19051 -10.19001 -10.18257
 Alpha  occ. eigenvalues --  -10.18244 -10.18213 -10.18100 -10.17274 -10.17226
 Alpha  occ. eigenvalues --  -10.17202 -10.17178 -10.17172 -10.17168 -10.17159
 Alpha  occ. eigenvalues --  -10.17157 -10.17153 -10.17136 -10.17126 -10.17120
 Alpha  occ. eigenvalues --  -10.17118 -10.17102 -10.17092 -10.17091 -10.17078
 Alpha  occ. eigenvalues --  -10.17073 -10.17071 -10.17060 -10.17043 -10.17017
 Alpha  occ. eigenvalues --  -10.16961 -10.16940 -10.16500 -10.16415 -10.16344
 Alpha  occ. eigenvalues --  -10.16302 -10.15671 -10.15601 -10.15597 -10.15543
 Alpha  occ. eigenvalues --  -10.13461 -10.13422 -10.13337 -10.13303 -10.13132
 Alpha  occ. eigenvalues --  -10.13039 -10.12974 -10.12931 -10.12899 -10.12881
 Alpha  occ. eigenvalues --  -10.12850 -10.12825 -10.12370 -10.12296 -10.12280
 Alpha  occ. eigenvalues --  -10.12223 -10.12196 -10.12161 -10.12036 -10.11962
 Alpha  occ. eigenvalues --   -5.25795  -5.25675  -5.25578  -5.25575  -3.61783
 Alpha  occ. eigenvalues --   -3.61660  -3.61615  -3.61567  -3.61565  -3.61564
 Alpha  occ. eigenvalues --   -3.61498  -3.61442  -3.61400  -3.61394  -3.61347
 Alpha  occ. eigenvalues --   -3.61345  -0.89165  -0.89107  -0.87286  -0.87227
 Alpha  occ. eigenvalues --   -0.85331  -0.85273  -0.82184  -0.82124  -0.81565
 Alpha  occ. eigenvalues --   -0.81507  -0.81163  -0.81104  -0.81020  -0.80975
 Alpha  occ. eigenvalues --   -0.78638  -0.78581  -0.78287  -0.78224  -0.77057
 Alpha  occ. eigenvalues --   -0.77001  -0.74264  -0.74195  -0.74000  -0.73953
 Alpha  occ. eigenvalues --   -0.73388  -0.73300  -0.73285  -0.73237  -0.72742
 Alpha  occ. eigenvalues --   -0.72656  -0.72053  -0.71989  -0.71319  -0.71293
 Alpha  occ. eigenvalues --   -0.71103  -0.71087  -0.71050  -0.70952  -0.70890
 Alpha  occ. eigenvalues --   -0.70881  -0.70440  -0.70395  -0.70199  -0.70185
 Alpha  occ. eigenvalues --   -0.69023  -0.68963  -0.67545  -0.67488  -0.63015
 Alpha  occ. eigenvalues --   -0.62956  -0.62680  -0.62628  -0.62620  -0.62570
 Alpha  occ. eigenvalues --   -0.61296  -0.61251  -0.61043  -0.60970  -0.58729
 Alpha  occ. eigenvalues --   -0.58672  -0.56629  -0.56561  -0.56410  -0.56340
 Alpha  occ. eigenvalues --   -0.53967  -0.53909  -0.53665  -0.53604  -0.53098
 Alpha  occ. eigenvalues --   -0.53039  -0.52332  -0.52273  -0.51921  -0.51859
 Alpha  occ. eigenvalues --   -0.49526  -0.49450  -0.48972  -0.48903  -0.48492
 Alpha  occ. eigenvalues --   -0.48435  -0.48062  -0.48011  -0.47022  -0.46954
 Alpha  occ. eigenvalues --   -0.46352  -0.46299  -0.46015  -0.45948  -0.45268
 Alpha  occ. eigenvalues --   -0.45209  -0.45140  -0.45054  -0.44958  -0.44924
 Alpha  occ. eigenvalues --   -0.44574  -0.44490  -0.44396  -0.44387  -0.43981
 Alpha  occ. eigenvalues --   -0.43921  -0.43584  -0.43528  -0.43394  -0.43314
 Alpha  occ. eigenvalues --   -0.43294  -0.43226  -0.43184  -0.43119  -0.43115
 Alpha  occ. eigenvalues --   -0.43060  -0.42400  -0.42343  -0.41914  -0.41881
 Alpha  occ. eigenvalues --   -0.41798  -0.41751  -0.41683  -0.41670  -0.41627
 Alpha  occ. eigenvalues --   -0.41509  -0.41215  -0.41203  -0.41128  -0.41059
 Alpha  occ. eigenvalues --   -0.41015  -0.40918  -0.40776  -0.40720  -0.40518
 Alpha  occ. eigenvalues --   -0.40374  -0.40337  -0.40279  -0.39965  -0.39919
 Alpha  occ. eigenvalues --   -0.39863  -0.39828  -0.39771  -0.39738  -0.38732
 Alpha  occ. eigenvalues --   -0.38673  -0.38633  -0.38566  -0.38441  -0.38322
 Alpha  occ. eigenvalues --   -0.38264  -0.38249  -0.36853  -0.36794  -0.36358
 Alpha  occ. eigenvalues --   -0.36300  -0.35832  -0.35775  -0.34749  -0.34692
 Alpha  occ. eigenvalues --   -0.34563  -0.34550  -0.33865  -0.33803  -0.33548
 Alpha  occ. eigenvalues --   -0.33490  -0.33421  -0.33356  -0.32768  -0.32706
 Alpha  occ. eigenvalues --   -0.32460  -0.32400  -0.32305  -0.32234  -0.32093
 Alpha  occ. eigenvalues --   -0.32035  -0.31726  -0.31655  -0.31553  -0.31542
 Alpha  occ. eigenvalues --   -0.30185  -0.30100  -0.29877  -0.29814  -0.28832
 Alpha  occ. eigenvalues --   -0.28762  -0.28494  -0.28436  -0.28163  -0.28006
 Alpha  occ. eigenvalues --   -0.27792  -0.27716  -0.26978  -0.26855  -0.25916
 Alpha  occ. eigenvalues --   -0.25878  -0.25259  -0.25201  -0.25073  -0.24904
 Alpha  occ. eigenvalues --   -0.23533  -0.23479  -0.23151  -0.23095  -0.21495
 Alpha  occ. eigenvalues --   -0.21439  -0.16689  -0.16630
 Alpha virt. eigenvalues --   -0.09519  -0.09462  -0.03244  -0.03183  -0.01705
 Alpha virt. eigenvalues --   -0.01647  -0.01307  -0.01253   0.01902   0.01961
 Alpha virt. eigenvalues --    0.02559   0.02608   0.02955   0.03054   0.03063

 Mulliken atomic charges:
              1
     1  Si   0.558500
     2  Si   0.566409
     3  C   -0.071385
     4  C    0.112482
     5  C   -0.165854
     6  H    0.063872
     7  C    0.106620
     8  C   -0.080608
     9  H    0.057008
    10  C   -0.063156
    11  H    0.059623
    12  C   -0.061713
    13  H    0.058821
    14  C   -0.082440
    15  H    0.056225
    16  C    0.104991
    17  C   -0.168791
    18  H    0.063175
    19  C    0.114201
    20  C   -0.073798
    21  C    0.111782
    22  C   -0.163749
    23  H    0.062708
    24  C    0.108031
    25  C   -0.086668
    26  H    0.056317
    27  C   -0.064692
    28  H    0.058518
    29  C   -0.062118
    30  H    0.058626
    31  C   -0.085828
    32  H    0.058380
    33  C    0.091984
    34  C   -0.149022
    35  H    0.065633
    36  C    0.099307
    37  C    0.356996
    38  C   -0.565842
    39  C   -0.520646
    40  H    0.129901
    41  H    0.118290
    42  H    0.133936
    43  C   -0.521244
    44  H    0.129559
    45  H    0.119304
    46  H    0.126935
    47  C   -0.187414
    48  C   -0.293771
    49  H    0.101607
    50  H    0.102283
    51  H    0.094650
    52  C   -0.295145
    53  H    0.115874
    54  H    0.101655
    55  H    0.088969
    56  C   -0.294747
    57  H    0.088851
    58  H    0.101486
    59  H    0.115786
    60  C    0.376275
    61  C   -0.586555
    62  C   -0.519307
    63  H    0.123625
    64  H    0.118050
    65  H    0.128954
    66  C   -0.521145
    67  H    0.130358
    68  H    0.119190
    69  H    0.126825
    70  C   -0.189054
    71  C   -0.291921
    72  H    0.118903
    73  H    0.097393
    74  H    0.092117
    75  C   -0.293570
    76  H    0.101559
    77  H    0.101530
    78  H    0.095396
    79  C   -0.296284
    80  H    0.090720
    81  H    0.096562
    82  H    0.118196
    83  Si   0.558860
    84  Si   0.563451
    85  C   -0.072590
    86  C    0.112353
    87  C   -0.168002
    88  H    0.062477
    89  C    0.106937
    90  C   -0.082341
    91  H    0.055866
    92  C   -0.064049
    93  H    0.059134
    94  C   -0.062777
    95  H    0.058946
    96  C   -0.081999
    97  H    0.057166
    98  C    0.103839
    99  C   -0.167566
   100  H    0.064402
   101  C    0.113978
   102  C   -0.072120
   103  C    0.111874
   104  C   -0.161552
   105  H    0.063884
   106  C    0.108013
   107  C   -0.085118
   108  H    0.057137
   109  C   -0.063621
   110  H    0.059121
   111  C   -0.060681
   112  H    0.058797
   113  C   -0.086638
   114  H    0.057081
   115  C    0.093270
   116  C   -0.150308
   117  H    0.064615
   118  C    0.099974
   119  C    0.356916
   120  C   -0.567681
   121  C   -0.519501
   122  H    0.127748
   123  H    0.118619
   124  H    0.129890
   125  C   -0.521102
   126  H    0.129245
   127  H    0.119919
   128  H    0.126536
   129  C   -0.188123
   130  C   -0.293481
   131  H    0.101499
   132  H    0.102693
   133  H    0.095415
   134  C   -0.297771
   135  H    0.118762
   136  H    0.100924
   137  H    0.089078
   138  C   -0.294956
   139  H    0.090134
   140  H    0.101148
   141  H    0.115297
   142  C    0.375924
   143  C   -0.584874
   144  C   -0.518017
   145  H    0.124207
   146  H    0.118544
   147  H    0.134811
   148  C   -0.521610
   149  H    0.130526
   150  H    0.118924
   151  H    0.126946
   152  C   -0.185426
   153  C   -0.291254
   154  H    0.116104
   155  H    0.098713
   156  H    0.090948
   157  C   -0.293601
   158  H    0.101587
   159  H    0.101137
   160  H    0.096069
   161  C   -0.296419
   162  H    0.091511
   163  H    0.096838
   164  H    0.116910
 Sum of Mulliken atomic charges =   0.00000

 Dipole moment (field-independent basis, Debye):
    X=             -0.3337    Y=             -0.2385    Z=             -1.2488  Tot=              1.3144
 Quadrupole moment (field-independent basis, Debye-Ang):
   XX=           -458.2016   YY=           -477.6380   ZZ=           -466.5164
   XY=            -22.0488   XZ=            -16.7981   YZ=            -21.3119

 Normal termination of Gaussian 09 at Fri Jan  6 10:18:16 2012.
